Created by bestin,amorphous Silica coating-silicon nanotube

2673 atoms
2 atom types

-0.500000E+02 0.50000E+02 xlo xhi
-0.500000E+02 0.50000E+02 ylo yhi
0.0000000E+02 0.50000E+02 zlo zhi

Masses

1 28.0855
2 15.999

Atoms

1	1	0	5.50E+00	0.00E+00	0.00E+00
2	1	0	5.03E+00	2.24E+00	0.00E+00
3	1	0	4.45E+00	3.23E+00	2.00E+00
4	1	0	2.75E+00	4.77E+00	2.00E+00
5	1	0	1.70E+00	5.23E+00	-4.44E-16
6	1	0	-5.75E-01	5.47E+00	3.99E+00
7	1	0	-1.70E+00	5.23E+00	2.00E+00
8	1	0	-3.68E+00	4.09E+00	2.00E+00
9	1	0	-4.45E+00	3.23E+00	-8.88E-16
10	1	0	-5.38E+00	1.14E+00	3.99E+00
11	1	0	-5.50E+00	6.74E-16	2.00E+00
12	1	0	-5.03E+00	-2.24E+00	2.00E+00
13	1	0	-4.45E+00	-3.23E+00	-2.22E-15
14	1	0	-2.75E+00	-4.77E+00	3.99E+00
15	1	0	-1.70E+00	-5.23E+00	2.00E+00
16	1	0	5.75E-01	-5.47E+00	2.00E+00
17	1	0	1.70E+00	-5.23E+00	-1.33E-15
18	1	0	3.68E+00	-4.09E+00	3.99E+00
19	1	0	4.45E+00	-3.23E+00	2.00E+00
20	1	0	5.38E+00	-1.14E+00	2.00E+00
21	1	0	5.50E+00	0.00E+00	3.99E+00
22	1	0	5.03E+00	2.24E+00	3.99E+00
23	1	0	4.45E+00	3.23E+00	5.99E+00
24	1	0	2.75E+00	4.77E+00	5.99E+00
25	1	0	1.70E+00	5.23E+00	3.99E+00
26	1	0	-5.75E-01	5.47E+00	7.98E+00
27	1	0	-1.70E+00	5.23E+00	5.99E+00
28	1	0	-3.68E+00	4.09E+00	5.99E+00
29	1	0	-4.45E+00	3.23E+00	3.99E+00
30	1	0	-5.38E+00	1.14E+00	7.98E+00
31	1	0	-5.50E+00	6.74E-16	5.99E+00
32	1	0	-5.03E+00	-2.24E+00	5.99E+00
33	1	0	-4.45E+00	-3.23E+00	3.99E+00
34	1	0	-2.75E+00	-4.77E+00	7.98E+00
35	1	0	-1.70E+00	-5.23E+00	5.99E+00
36	1	0	5.75E-01	-5.47E+00	5.99E+00
37	1	0	1.70E+00	-5.23E+00	3.99E+00
38	1	0	3.68E+00	-4.09E+00	7.98E+00
39	1	0	4.45E+00	-3.23E+00	5.99E+00
40	1	0	5.38E+00	-1.14E+00	5.99E+00
41	1	0	5.50E+00	0.00E+00	7.98E+00
42	1	0	5.03E+00	2.24E+00	7.98E+00
43	1	0	4.45E+00	3.23E+00	9.98E+00
44	1	0	2.75E+00	4.77E+00	9.98E+00
45	1	0	1.70E+00	5.23E+00	7.98E+00
46	1	0	-5.75E-01	5.47E+00	1.20E+01
47	1	0	-1.70E+00	5.23E+00	9.98E+00
48	1	0	-3.68E+00	4.09E+00	9.98E+00
49	1	0	-4.45E+00	3.23E+00	7.98E+00
50	1	0	-5.38E+00	1.14E+00	1.20E+01
51	1	0	-5.50E+00	6.74E-16	9.98E+00
52	1	0	-5.03E+00	-2.24E+00	9.98E+00
53	1	0	-4.45E+00	-3.23E+00	7.98E+00
54	1	0	-2.75E+00	-4.77E+00	1.20E+01
55	1	0	-1.70E+00	-5.23E+00	9.98E+00
56	1	0	5.75E-01	-5.47E+00	9.98E+00
57	1	0	1.70E+00	-5.23E+00	7.98E+00
58	1	0	3.68E+00	-4.09E+00	1.20E+01
59	1	0	4.45E+00	-3.23E+00	9.98E+00
60	1	0	5.38E+00	-1.14E+00	9.98E+00
61	1	0	5.50E+00	0.00E+00	1.20E+01
62	1	0	5.03E+00	2.24E+00	1.20E+01
63	1	0	4.45E+00	3.23E+00	1.40E+01
64	1	0	2.75E+00	4.77E+00	1.40E+01
65	1	0	1.70E+00	5.23E+00	1.20E+01
66	1	0	-5.75E-01	5.47E+00	1.60E+01
67	1	0	-1.70E+00	5.23E+00	1.40E+01
68	1	0	-3.68E+00	4.09E+00	1.40E+01
69	1	0	-4.45E+00	3.23E+00	1.20E+01
70	1	0	-5.38E+00	1.14E+00	1.60E+01
71	1	0	-5.50E+00	6.74E-16	1.40E+01
72	1	0	-5.03E+00	-2.24E+00	1.40E+01
73	1	0	-4.45E+00	-3.23E+00	1.20E+01
74	1	0	-2.75E+00	-4.77E+00	1.60E+01
75	1	0	-1.70E+00	-5.23E+00	1.40E+01
76	1	0	5.75E-01	-5.47E+00	1.40E+01
77	1	0	1.70E+00	-5.23E+00	1.20E+01
78	1	0	3.68E+00	-4.09E+00	1.60E+01
79	1	0	4.45E+00	-3.23E+00	1.40E+01
80	1	0	5.38E+00	-1.14E+00	1.40E+01
81	1	0	5.50E+00	0.00E+00	1.60E+01
82	1	0	5.03E+00	2.24E+00	1.60E+01
83	1	0	4.45E+00	3.23E+00	1.80E+01
84	1	0	2.75E+00	4.77E+00	1.80E+01
85	1	0	1.70E+00	5.23E+00	1.60E+01
86	1	0	-5.75E-01	5.47E+00	2.00E+01
87	1	0	-1.70E+00	5.23E+00	1.80E+01
88	1	0	-3.68E+00	4.09E+00	1.80E+01
89	1	0	-4.45E+00	3.23E+00	1.60E+01
90	1	0	-5.38E+00	1.14E+00	2.00E+01
91	1	0	-5.50E+00	6.74E-16	1.80E+01
92	1	0	-5.03E+00	-2.24E+00	1.80E+01
93	1	0	-4.45E+00	-3.23E+00	1.60E+01
94	1	0	-2.75E+00	-4.77E+00	2.00E+01
95	1	0	-1.70E+00	-5.23E+00	1.80E+01
96	1	0	5.75E-01	-5.47E+00	1.80E+01
97	1	0	1.70E+00	-5.23E+00	1.60E+01
98	1	0	3.68E+00	-4.09E+00	2.00E+01
99	1	0	4.45E+00	-3.23E+00	1.80E+01
100	1	0	5.38E+00	-1.14E+00	1.80E+01
101	1	0	5.50E+00	0.00E+00	2.00E+01
102	1	0	5.03E+00	2.24E+00	2.00E+01
103	1	0	4.45E+00	3.23E+00	2.20E+01
104	1	0	2.75E+00	4.77E+00	2.20E+01
105	1	0	1.70E+00	5.23E+00	2.00E+01
106	1	0	-5.75E-01	5.47E+00	2.40E+01
107	1	0	-1.70E+00	5.23E+00	2.20E+01
108	1	0	-3.68E+00	4.09E+00	2.20E+01
109	1	0	-4.45E+00	3.23E+00	2.00E+01
110	1	0	-5.38E+00	1.14E+00	2.40E+01
111	1	0	-5.50E+00	6.74E-16	2.20E+01
112	1	0	-5.03E+00	-2.24E+00	2.20E+01
113	1	0	-4.45E+00	-3.23E+00	2.00E+01
114	1	0	-2.75E+00	-4.77E+00	2.40E+01
115	1	0	-1.70E+00	-5.23E+00	2.20E+01
116	1	0	5.75E-01	-5.47E+00	2.20E+01
117	1	0	1.70E+00	-5.23E+00	2.00E+01
118	1	0	3.68E+00	-4.09E+00	2.40E+01
119	1	0	4.45E+00	-3.23E+00	2.20E+01
120	1	0	5.38E+00	-1.14E+00	2.20E+01
121	1	0	5.50E+00	0.00E+00	2.40E+01
122	1	0	5.03E+00	2.24E+00	2.40E+01
123	1	0	4.45E+00	3.23E+00	2.60E+01
124	1	0	2.75E+00	4.77E+00	2.60E+01
125	1	0	1.70E+00	5.23E+00	2.40E+01
126	1	0	-5.75E-01	5.47E+00	2.79E+01
127	1	0	-1.70E+00	5.23E+00	2.60E+01
128	1	0	-3.68E+00	4.09E+00	2.60E+01
129	1	0	-4.45E+00	3.23E+00	2.40E+01
130	1	0	-5.38E+00	1.14E+00	2.79E+01
131	1	0	-5.50E+00	6.74E-16	2.60E+01
132	1	0	-5.03E+00	-2.24E+00	2.60E+01
133	1	0	-4.45E+00	-3.23E+00	2.40E+01
134	1	0	-2.75E+00	-4.77E+00	2.79E+01
135	1	0	-1.70E+00	-5.23E+00	2.60E+01
136	1	0	5.75E-01	-5.47E+00	2.60E+01
137	1	0	1.70E+00	-5.23E+00	2.40E+01
138	1	0	3.68E+00	-4.09E+00	2.79E+01
139	1	0	4.45E+00	-3.23E+00	2.60E+01
140	1	0	5.38E+00	-1.14E+00	2.60E+01
141	1	0	5.50E+00	0.00E+00	2.79E+01
142	1	0	5.03E+00	2.24E+00	2.79E+01
143	1	0	4.45E+00	3.23E+00	2.99E+01
144	1	0	2.75E+00	4.77E+00	2.99E+01
145	1	0	1.70E+00	5.23E+00	2.79E+01
146	1	0	-5.75E-01	5.47E+00	3.19E+01
147	1	0	-1.70E+00	5.23E+00	2.99E+01
148	1	0	-3.68E+00	4.09E+00	2.99E+01
149	1	0	-4.45E+00	3.23E+00	2.79E+01
150	1	0	-5.38E+00	1.14E+00	3.19E+01
151	1	0	-5.50E+00	6.74E-16	2.99E+01
152	1	0	-5.03E+00	-2.24E+00	2.99E+01
153	1	0	-4.45E+00	-3.23E+00	2.79E+01
154	1	0	-2.75E+00	-4.77E+00	3.19E+01
155	1	0	-1.70E+00	-5.23E+00	2.99E+01
156	1	0	5.75E-01	-5.47E+00	2.99E+01
157	1	0	1.70E+00	-5.23E+00	2.79E+01
158	1	0	3.68E+00	-4.09E+00	3.19E+01
159	1	0	4.45E+00	-3.23E+00	2.99E+01
160	1	0	5.38E+00	-1.14E+00	2.99E+01
161	1	0	5.50E+00	0.00E+00	3.19E+01
162	1	0	5.03E+00	2.24E+00	3.19E+01
163	1	0	4.45E+00	3.23E+00	3.39E+01
164	1	0	2.75E+00	4.77E+00	3.39E+01
165	1	0	1.70E+00	5.23E+00	3.19E+01
166	1	0	-5.75E-01	5.47E+00	3.59E+01
167	1	0	-1.70E+00	5.23E+00	3.39E+01
168	1	0	-3.68E+00	4.09E+00	3.39E+01
169	1	0	-4.45E+00	3.23E+00	3.19E+01
170	1	0	-5.38E+00	1.14E+00	3.59E+01
171	1	0	-5.50E+00	6.73896456e-16	3.39E+01
172	1	0	-5.03E+00	-2.24E+00	3.39E+01
173	1	0	-4.45E+00	-3.23E+00	3.19E+01
174	1	0	-2.75E+00	-4.77E+00	3.59E+01
175	1	0	-1.70E+00	-5.23E+00	3.39E+01
176	1	0	5.75E-01	-5.47E+00	3.39E+01
177	1	0	1.70E+00	-5.23E+00	3.19E+01
178	1	0	3.68E+00	-4.09E+00	3.59E+01
179	1	0	4.45E+00	-3.23E+00	3.39E+01
180	1	0	5.38E+00	-1.14E+00	3.39E+01
181	1	0	5.50E+00	0.00E+00	3.59E+01
182	1	0	5.03E+00	2.24E+00	3.59E+01
183	1	0	4.45E+00	3.23E+00	3.79E+01
184	1	0	2.75E+00	4.77E+00	3.79E+01
185	1	0	1.70E+00	5.23E+00	3.59E+01
186	1	0	-5.75E-01	5.47E+00	3.99E+01
187	1	0	-1.70E+00	5.23E+00	3.79E+01
188	1	0	-3.68E+00	4.09E+00	3.79E+01
189	1	0	-4.45E+00	3.23E+00	3.59E+01
190	1	0	-5.38E+00	1.14E+00	3.99E+01
191	1	0	-5.50E+00	6.74E-16	3.79E+01
192	1	0	-5.03E+00	-2.24E+00	3.79E+01
193	1	0	-4.45E+00	-3.23E+00	3.59E+01
194	1	0	-2.75E+00	-4.77E+00	3.99E+01
195	1	0	-1.70E+00	-5.23E+00	3.79E+01
196	1	0	5.75E-01	-5.47E+00	3.79E+01
197	1	0	1.70E+00	-5.23E+00	3.59E+01
198	1	0	3.68E+00	-4.09E+00	3.99E+01
199	1	0	4.45E+00	-3.23E+00	3.79E+01
200	1	0	5.38E+00	-1.14E+00	3.79E+01
201 2  -0.65 -2.97505 -16.6105 1.14594 
202 1  1.3 -1.6754 -16.1095 1.9397 
203 2  -0.65 -0.37715 -15.6403 1.01139 
204 2  -0.65 4.22565 -15.4497 2.28605 
205 1  1.3 5.4545 -16.0029 1.35484 
206 2  -0.65 -11.0951 -12.7844 2.03115 
207 2  -0.65 -5.91255 -14.0009 0.87477 
208 1  1.3 -5.2736 -13.0117 1.98567 
209 1  1.3 1.7796 -12.5109 1.01999 
210 2  -0.65 3.10405 -13.0984 1.83259 
211 2  -0.65 6.0501 -14.846 0.349246 
212 2  -0.65 7.93505 -13.1692 1.26772 
213 2  -0.65 10.3043 -12.8307 2.44565 
214 2  -0.65 -11.5323 -11.1641 0.00463365 
215 2  -0.65 -6.40625 -11.8801 2.38098 
216 2  -0.65 -4.09705 -12.1199 1.33584 
217 2  -0.65 -2.2881 -10.3555 0.238495 
218 2  -0.65 0.554852 -12.1659 2.08343 
219 2  -0.65 2.322 -11.1874 0.301227 
220 2  -0.65 4.7297 -10.0554 0.602565 
221 1  1.3 8.94965 -12.0857 1.88927 
222 2  -0.65 9.4631 -11.1108 0.649935 
223 2  -0.65 12.0784 -10.1832 0.62908 
224 2  -0.65 -9.9888 -9.31685 1.10861 
225 1  1.3 -8.82465 -8.70535 2.05649 
226 2  -0.65 -7.8823 -7.7619 1.11337 
227 2  -0.65 -2.95525 -8.42215 1.94494 
228 1  1.3 -1.70005 -9.2267 1.25013 
229 2  -0.65 -0.959801 -8.17765 0.278668 
230 2  -0.65 -0.642651 -9.76615 2.42519 
231 1  1.3 5.3195 -8.8922 1.58528 
232 2  -0.65 6.00725 -7.63065 0.75792 
233 2  -0.65 6.55845 -9.6352 2.3055 
234 1  1.3 12.6213 -9.0305 1.68834 
235 2  -0.65 13.1497 -7.9075 0.668475 
236 2  -0.65 -13.141 -6.90265 1.21069 
237 1  1.3 -14.2365 -7.1468 0.0099947 
238 1  1.3 -12.3884 -5.8761 2.25311 
239 2  -0.65 -11.1344 -5.1243 1.52608 
240 1  1.3 -5.4219 -5.28115 0.79531 
241 2  -0.65 -3.9848 -5.93835 1.41444 
242 2  -0.65 8.40715 -6.5413 0.48267 
243 1  1.3 9.01045 -5.6215 1.65076 
244 1  1.3 -10.6466 -3.9729 0.539775 
245 2  -0.65 -10.1489 -2.67645 1.53507 
246 2  -0.65 -7.5885 -2.5425 2.18714 
247 2  -0.65 -6.4167 -4.8989 1.99934 
248 2  -0.65 7.86235 -4.6241 2.37043 
249 2  -0.65 10.2971 -4.84445 0.954 
250 1  1.3 10.9 -3.48205 0.239988 
251 2  -0.65 15.0368 -4.7403 2.2775 
252 1  1.3 -16.1049 -1.70645 2.032 
253 2  -0.65 -14.9265 -0.9795 1.20862 
254 1  1.3 -8.92175 -1.64915 1.75491 
255 2  -0.65 -8.44845 -0.807249 0.448435 
256 1  1.3 7.253 -0.3859 0.318137 
257 2  -0.65 11.3018 -2.2269 1.21237 
258 1  1.3 12.5117 -1.2727 1.89539 
259 2  -0.65 13.0289 -0.346451 0.670385 
260 2  -0.65 13.7701 -2.2241 2.34892 
261 2  -0.65 -12.9335 0.57975 0.226461 
262 2  -0.65 -13.406 2.23335 2.13856 
263 1  1.3 -12.2899 1.8078 1.06809 
264 2  -0.65 -11.0058 1.25255 1.88462 
265 2  -0.65 8.4512 0.3407 1.15143 
266 1  1.3 8.88865 1.61135 2.07458 
267 2  -0.65 9.99865 2.4016 1.15683 
268 2  -0.65 14.8337 1.49025 1.43454 
269 1  1.3 14.3122 0.503149 0.21403 
270 1  1.3 16.1328 2.32915 2.02267 
271 2  -0.65 -14.7528 4.4457 2.21852 
272 2  -0.65 -10.3286 4.72935 1.05104 
273 2  -0.65 -11.7921 2.99645 0.076789 
274 2  -0.65 6.5352 4.73415 2.11398 
275 2  -0.65 7.62325 2.523 2.41838 
276 2  -0.65 11.1498 4.90225 1.60578 
277 1  1.3 10.598 3.76375 0.52427 
278 1  1.3 -15.9663 5.46035 1.85317 
279 2  -0.65 -15.3818 6.4531 0.630385 
280 1  1.3 -9.05405 5.25515 1.96774 
281 2  -0.65 -7.7955 5.6445 0.957275 
282 2  -0.65 -6.0238 7.3997 0.272573 
283 2  -0.65 1.26425 7.43885 0.619885 
284 1  1.3 5.4346 5.78 1.65148 
285 2  -0.65 5.95725 6.82745 0.471211 
286 2  -0.65 13.801 5.70145 1.71222 
287 1  1.3 14.3902 6.56375 0.472679 
288 1  1.3 -14.3329 7.62205 0.0984455 
289 2  -0.65 -13.7507 8.18875 1.5064 
290 1  1.3 -12.5159 8.7478 2.41609 
291 2  -0.65 -11.2188 9.246 1.53094 
292 1  1.3 -5.32325 8.6972 1.07877 
293 2  -0.65 -6.5137 9.3295 1.93294 
294 2  -0.65 -4.01305 8.1476 1.83546 
295 2  -0.65 -4.8439 9.98805 0.270756 
296 1  1.3 1.79005 8.4978 1.77134 
297 2  -0.65 0.603951 9.54985 2.20957 
298 2  -0.65 2.93375 9.5359 1.19975 
299 1  1.3 9.0257 9.38815 1.88871 
300 2  -0.65 7.7348 8.6525 1.2703 
301 2  -0.65 10.1212 8.28935 2.43928 
302 1  1.3 -10.5319 10.3556 0.53666 
303 2  -0.65 -10.005 11.6351 1.42582 
304 2  -0.65 -7.49045 11.7166 2.46196 
305 2  -0.65 -2.9306 11.9077 1.04832 
306 2  -0.65 -0.439049 12.0285 2.02689 
307 2  -0.65 4.82005 11.238 0.906655 
308 1  1.3 3.59325 10.533 0.111139 
309 1  1.3 5.341 12.1632 2.11129 
310 2  -0.65 9.621 10.325 0.64983 
311 1  1.3 -8.79285 12.5409 1.99044 
312 2  -0.65 -8.4765 13.597 0.84132 
313 1  1.3 -7.21345 14.3515 0.0588055 
314 1  1.3 -1.73415 12.9212 1.48281 
315 2  -0.65 -1.219 13.9623 0.33496 
316 2  -0.65 4.09895 13.1805 2.31442 
317 2  -0.65 6.5332 13.0896 1.5484 
318 1  1.3 7.13245 13.8513 0.225565 
319 2  -0.65 -6.3784 15.4424 0.92147 
320 1  1.3 -5.1683 16.0303 1.90172 
321 2  -0.65 1.0855 15.1108 0.077655 
322 1  1.3 1.6319 16.0894 1.23706 
323 2  -0.65 0.469849 16.2865 2.41612 
324 2  -0.65 2.9681 15.4644 1.97446 
325 2  -0.65 -4.0018 -15.8108 4.95679 
326 2  -0.65 0.68405 -16.2767 4.62912 
327 2  -0.65 -9.93525 -12.6477 4.47858 
328 2  -0.65 -4.61355 -13.7283 3.31964 
329 1  1.3 -3.432 -14.5642 4.08883 
330 2  -0.65 -2.29715 -14.9298 2.94102 
331 2  -0.65 2.49805 -14.3529 4.15953 
332 1  1.3 3.65535 -14.1146 3.03149 
333 2  -0.65 4.8976 -13.4906 3.88235 
334 2  -0.65 -12.9872 -10.4008 4.09389 
335 2  -0.65 -7.55715 -11.4292 4.79536 
336 1  1.3 -6.9261 -10.7495 3.45154 
337 2  -0.65 -1.1736 -11.8837 3.81864 
338 1  1.3 0.0330505 -11.0437 3.08144 
339 2  -0.65 1.19835 -10.6468 4.15997 
340 2  -0.65 5.8535 -11.0154 4.49224 
341 1  1.3 7.0772 -10.294 3.67391 
342 2  -0.65 8.2451 -11.3435 3.21554 
343 2  -0.65 -8.1468 -9.99595 2.69474 
344 2  -0.65 -9.3849 -7.76865 3.30206 
345 2  -0.65 -5.71215 -9.7306 3.73212 
346 1  1.3 -5.25545 -8.50135 4.65858 
347 2  -0.65 4.12075 -8.32485 2.522 
348 2  -0.65 2.9478 -8.93495 4.83397 
349 1  1.3 3.47385 -7.67675 3.91677 
350 2  -0.65 7.79975 -9.14195 4.61253 
351 2  -0.65 11.4038 -8.51785 2.60119 
352 2  -0.65 10.1256 -7.98435 4.90546 
353 2  -0.65 13.9347 -9.5415 2.51123 
354 1  1.3 -10.6137 -7.30515 4.36877 
355 2  -0.65 -11.8112 -6.7467 3.48095 
356 2  -0.65 -4.6702 -7.3096 3.70129 
357 1  1.3 -3.48725 -7.02935 2.55399 
358 2  -0.65 4.8389 -6.91685 4.45966 
359 2  -0.65 9.5735 -6.6491 2.73205 
360 1  1.3 10.8154 -7.3519 3.53868 
361 2  -0.65 11.9854 -6.2073 3.91522 
362 2  -0.65 -15.4212 -2.87115 3.01941 
363 2  -0.65 -13.4109 -4.739 2.65514 
364 1  1.3 -14.1414 -3.66625 3.67832 
365 2  -0.65 -12.9218 -2.68865 4.16881 
366 2  -0.65 -14.6886 -4.4094 4.99374 
367 2  -0.65 -8.1621 -4.52575 3.89915 
368 1  1.3 -6.9551 -3.76905 3.04849 
369 2  -0.65 6.6861 -4.982 4.84114 
370 1  1.3 7.35595 -3.91875 3.7682 
371 2  -0.65 8.60135 -3.20125 4.44315 
372 1  1.3 14.569 -3.4526 3.17108 
373 2  -0.65 13.5272 -4.06005 4.32737 
374 2  -0.65 15.6741 -2.7794 4.19336 
375 2  -0.65 -16.749 -0.515949 3.01423 
376 1  1.3 -12.4378 -1.3418 4.99684 
377 2  -0.65 -11.8616 -0.2106 3.9357 
378 2  -0.65 -9.4255 -0.682249 2.93497 
379 2  -0.65 10.2158 -1.1975 4.62497 
380 2  -0.65 11.9484 -0.195999 3.00951 
381 2  -0.65 16.5295 -0.2153 4.60658 
382 2  -0.65 -15.3797 2.4199 3.95011 
383 1  1.3 -10.5534 0.42415 3.2458 
384 2  -0.65 -9.8829 1.5216 4.28093 
385 2  -0.65 9.56255 1.08385 3.47957 
386 1  1.3 10.7576 0.252449 4.1411 
387 1  1.3 -14.2189 3.17685 3.15689 
388 2  -0.65 -13.068 3.73385 4.10535 
389 2  -0.65 -7.6226 2.5554 4.79928 
390 2  -0.65 -8.4044 4.06285 2.96774 
391 1  1.3 -7.02495 3.38825 3.54558 
392 2  -0.65 -5.89385 4.5312 3.88939 
393 1  1.3 7.1096 3.81805 3.25597 
394 2  -0.65 8.2861 4.6419 3.95516 
395 2  -0.65 12.8844 4.05745 3.63089 
396 1  1.3 14.1916 3.39005 4.35667 
397 2  -0.65 15.4961 3.08035 3.36705 
398 1  1.3 -10.6651 6.91545 4.1417 
399 2  -0.65 -11.1588 5.54385 4.85596 
400 2  -0.65 -9.55025 6.45765 2.99079 
401 1  1.3 -5.28015 5.6313 4.84685 
402 2  -0.65 -4.71985 6.9859 4.0585 
403 2  -0.65 4.8243 6.67855 2.88902 
404 1  1.3 3.57175 7.06065 3.9137 
405 2  -0.65 9.5227 6.89165 4.55977 
406 1  1.3 12.409 5.2404 2.54123 
407 2  -0.65 11.9502 6.5836 3.38833 
408 2  -0.65 -11.9122 7.62965 3.41044 
409 2  -0.65 -8.27145 9.66635 4.04155 
410 1  1.3 -3.473 7.5651 3.28341 
411 2  -0.65 -2.88985 8.8057 4.13334 
412 2  -0.65 2.28915 7.6611 3.09852 
413 2  -0.65 6.66985 9.31665 4.97878 
414 1  1.3 10.7378 7.6226 3.81709 
415 2  -0.65 11.528 8.64315 4.81431 
416 2  -0.65 -13.0449 10.0591 3.24676 
417 1  1.3 -6.96155 10.2975 3.22422 
418 2  -0.65 -5.80995 10.6525 4.33584 
419 2  -0.65 -0.86595 10.5823 4.20537 
420 1  1.3 0.2202 10.9226 3.00853 
421 2  -0.65 1.49135 11.587 3.75305 
422 1  1.3 7.2397 10.6125 4.1527 
423 2  -0.65 5.97555 11.3183 3.38714 
424 2  -0.65 8.48045 10.2543 3.1886 
425 2  -0.65 13.0133 10.5914 3.92348 
426 2  -0.65 -9.26645 13.534 3.19835 
427 1  1.3 -3.46605 14.1007 3.79569 
428 2  -0.65 -4.06935 12.7205 4.45162 
429 2  -0.65 -4.6536 14.812 2.87176 
430 2  -0.65 -2.2517 13.7938 2.73885 
431 2  -0.65 2.4621 14.0556 4.27809 
432 1  1.3 1.95915 12.6509 4.96604 
433 1  1.3 3.6131 14.5083 3.14125 
434 2  -0.65 10.1306 12.8987 4.54696 
435 2  -0.65 -2.98565 15.2397 4.84693 
436 2  -0.65 -0.543251 16.4211 4.83594 
437 2  -0.65 4.92355 15.2925 3.85505 
438 1  1.3 1.85935 -15.3439 5.20805 
439 2  -0.65 3.1251 -16.2878 5.7759 
440 2  -0.65 -8.18315 -13.8549 5.99 
441 1  1.3 -7.05785 -14.6974 6.7483 
442 2  -0.65 -5.8973 -13.5905 7.0557 
443 2  -0.65 -2.75975 -13.5305 5.16505 
444 2  -0.65 -0.378 -12.7142 6.18305 
445 1  1.3 0.258101 -13.8132 7.26815 
446 2  -0.65 1.42045 -14.5261 6.51 
447 2  -0.65 6.63535 -13.2409 5.78245 
448 1  1.3 7.20465 -13.9167 7.13965 
449 2  -0.65 -11.8242 -10.7508 6.48595 
450 1  1.3 -8.6912 -12.3829 5.51775 
451 2  -0.65 -9.3469 -11.6653 6.8225 
452 1  1.3 -3.57735 -10.0875 6.5895 
453 2  -0.65 -4.87455 -11.017 6.91715 
454 2  -0.65 -2.23545 -10.961 6.10405 
455 1  1.3 -1.69155 -12.2466 5.2651 
456 2  -0.65 2.35155 -10.7565 6.71545 
457 2  -0.65 4.3989 -12.2525 6.3953 
458 1  1.3 3.7054 -11.2613 7.4288 
459 1  1.3 5.38615 -12.4728 5.085 
460 2  -0.65 11.3008 -11.935 6.25065 
461 1  1.3 10.704 -10.8662 7.3332 
462 2  -0.65 -13.7565 -8.85655 6.13685 
463 1  1.3 -14.2366 -7.55945 7.0339 
464 1  1.3 -12.5005 -9.61485 5.43335 
465 2  -0.65 -11.2625 -8.5498 5.20395 
466 2  -0.65 -6.6448 -8.04225 5.4576 
467 2  -0.65 -3.9886 -8.94765 5.5695 
468 1  1.3 1.76025 -9.86465 5.4939 
469 2  -0.65 0.544899 -8.8137 5.7965 
470 2  -0.65 9.5 -9.99615 6.5869 
471 1  1.3 8.9381 -8.7856 5.72765 
472 2  -0.65 8.34695 -7.56375 6.65145 
473 1  1.3 -15.8946 -5.16135 5.7476 
474 2  -0.65 -15.4068 -6.6318 6.27965 
475 2  -0.65 -12.9625 -6.66965 7.40215 
476 2  -0.65 -9.98095 -6.1449 5.31405 
477 2  -0.65 -7.80485 -5.7134 6.27435 
478 1  1.3 -7.32045 -7.214 6.71945 
479 1  1.3 0.0772514 -7.41735 6.5115 
480 1  1.3 5.40825 -5.75535 5.4814 
481 2  -0.65 5.87735 -6.5137 6.86475 
482 1  1.3 12.7173 -5.29105 5.01675 
483 1  1.3 14.2253 -6.78995 7.20905 
484 2  -0.65 13.8764 -6.20615 5.72185 
485 1  1.3 -10.7153 -3.0519 6.9871 
486 2  -0.65 -11.6921 -4.3336 7.13415 
487 1  1.3 -8.8516 -4.9093 5.33565 
488 2  -0.65 -9.48885 -3.58645 6.0723 
489 2  -0.65 9.9839 -2.7729 6.67505 
490 2  -0.65 11.5582 -4.87215 6.1266 
491 1  1.3 10.9069 -4.01055 7.32015 
492 2  -0.65 -13.7234 -0.69915 5.6916 
493 2  -0.65 -11.3832 -1.80395 6.1774 
494 1  1.3 -7.1604 -0.3533 6.835 
495 1  1.3 9.10815 -2.063 5.49705 
496 2  -0.65 7.8332 -1.2312 6.00785 
497 2  -0.65 14.8081 -1.13735 6.304 
498 1  1.3 16.0414 -1.59205 5.35585 
499 1  1.3 -16.0867 2.0388 5.4137 
500 2  -0.65 -15.0688 1.4361 6.4734 
501 1  1.3 -14.3234 0.0829487 7.0063 
502 1  1.3 -8.9014 1.7813 5.50205 
503 2  -0.65 -8.39485 0.368801 6.11475 
504 1  1.3 7.1656 0.138199 6.6799 
505 2  -0.65 8.2406 1.07785 7.34925 
506 2  -0.65 11.3559 0.971048 5.5158 
507 1  1.3 12.4903 1.76065 6.3789 
508 2  -0.65 13.6944 2.2552 5.38615 
509 2  -0.65 13.021 0.639702 7.42265 
510 1  1.3 -12.5008 4.70575 5.3364 
511 2  -0.65 -12.0282 3.6849 6.50885 
512 2  -0.65 -9.49545 2.83245 6.57115 
513 2  -0.65 10.1173 4.72335 6.00455 
514 2  -0.65 11.9482 3.11305 7.1499 
515 1  1.3 10.6351 4.1269 7.4071 
516 2  -0.65 14.7206 4.59345 5.3076 
517 2  -0.65 -13.6525 5.8294 5.74415 
518 1  1.3 -14.3477 6.6481 6.98045 
519 2  -0.65 -6.52715 6.08015 5.8204 
520 1  1.3 -7.1432 7.054 6.96335 
521 1  1.3 -0.00964928 7.2432 6.40785 
522 1  1.3 8.9077 5.49805 5.20255 
523 2  -0.65 7.6308 5.68675 6.26875 
524 1  1.3 15.8304 5.5729 5.95745 
525 2  -0.65 15.4418 7.02475 6.552 
526 2  -0.65 -9.98375 7.99165 5.1885 
527 1  1.3 -8.87865 9.1071 5.44735 
528 2  -0.65 -7.71595 8.44975 6.32905 
529 1  1.3 -1.6993 9.51815 5.06295 
530 2  -0.65 -0.6057 8.3665 5.33405 
531 2  -0.65 1.29975 7.9393 7.17745 
532 2  -0.65 4.08945 8.11215 5.06935 
533 2  -0.65 5.98545 7.6445 6.9213 
534 1  1.3 5.37685 8.73715 5.8377 
535 1  1.3 12.5732 9.8031 5.27105 
536 1  1.3 14.4207 8.1185 7.2583 
537 2  -0.65 13.8519 9.08555 6.0396 
538 2  -0.65 -11.8619 11.6375 6.8531 
539 1  1.3 -10.6058 10.6908 7.43095 
540 2  -0.65 -9.46295 10.3358 6.3562 
541 1  1.3 -5.24805 11.8854 5.24785 
542 2  -0.65 -4.6944 11.2026 6.65025 
543 2  -0.65 -2.23225 10.2308 6.44565 
544 2  -0.65 4.97295 10.1561 6.58075 
545 2  -0.65 3.16495 11.9533 5.74105 
546 1  1.3 3.6677 11.0404 7.0552 
547 2  -0.65 7.8183 11.6718 5.29315 
548 2  -0.65 9.7291 11.9597 7.0397 
549 2  -0.65 11.8619 10.7603 6.35685 
550 2  -0.65 -8.33135 13.4921 7.3912 
551 2  -0.65 -6.30795 13.0468 5.6278 
552 1  1.3 -7.0708 14.0709 6.61495 
553 2  -0.65 -1.1495 14.6118 6.59765 
554 1  1.3 0.0637493 13.6917 7.24965 
555 2  -0.65 0.703251 12.8235 6.0165 
556 1  1.3 7.217 14.9765 6.81515 
557 2  -0.65 5.963 14.0182 7.45215 
558 1  1.3 9.0638 12.6538 5.76885 
559 2  -0.65 8.42795 14.0611 6.18335 
560 1  1.3 -1.7942 15.8621 5.732 
561 2  -0.65 -0.805599 -15.0092 7.5691 
562 2  -0.65 -0.63295 -16.6141 9.63555 
563 1  1.3 -1.73255 -15.8062 8.6788 
564 1  1.3 5.19265 -15.5331 9.04005 
565 2  -0.65 -4.15325 -12.7718 8.7369 
566 1  1.3 -3.628 -13.7035 9.97905 
567 2  -0.65 -2.3618 -14.5506 9.54625 
568 2  -0.65 0.69125 -12.9111 8.5997 
569 1  1.3 1.88495 -12.5405 9.66245 
570 2  -0.65 5.85185 -14.682 7.80325 
571 2  -0.65 7.65865 -12.8674 8.31025 
572 2  -0.65 9.52285 -14.0134 9.7341 
573 1  1.3 8.89835 -12.5005 9.3256 
574 1  1.3 -10.685 -11.0997 7.5814 
575 2  -0.65 -11.26 -12.0805 8.7499 
576 1  1.3 -5.3814 -12.225 7.8654 
577 2  -0.65 -6.726 -11.7528 8.648 
578 1  1.3 -7.2914 -10.9333 9.96205 
579 2  -0.65 3.19745 -12.1106 8.7751 
580 2  -0.65 4.62555 -10.0028 7.83 
581 2  -0.65 5.99155 -10.5954 9.94525 
582 2  -0.65 10.0947 -11.5368 8.6878 
583 2  -0.65 -10.2466 -9.73805 8.38895 
584 2  -0.65 -7.9202 -9.4691 9.46075 
585 1  1.3 -9.1392 -8.6201 8.80975 
586 2  -0.65 -8.5476 -7.85705 7.5027 
587 2  -0.65 -3.1029 -9.2653 7.9271 
588 2  -0.65 -2.50155 -7.6902 9.8906 
589 1  1.3 -1.81895 -8.60085 8.7101 
590 2  -0.65 -0.738201 -9.55115 9.4433 
591 2  -0.65 -1.02205 -7.56335 7.6886 
592 2  -0.65 4.2201 -8.5155 9.73075 
593 1  1.3 5.45715 -9.3593 9.0617 
594 2  -0.65 6.688 -8.5023 8.54975 
595 2  -0.65 11.9334 -9.88105 7.79595 
596 1  1.3 12.3598 -8.68665 8.8294 
597 2  -0.65 11.0661 -8.4896 9.78685 
598 2  -0.65 13.6243 -9.154 9.7014 
599 1  1.3 -12.4209 -5.33535 8.14875 
600 2  -0.65 -11.1746 -5.7688 9.0975 
601 2  -0.65 -6.18895 -6.93465 7.85915 
602 1  1.3 -5.47845 -5.9394 8.9911 
603 1  1.3 7.1002 -7.1638 7.66605 
604 2  -0.65 7.5183 -5.95965 8.6774 
605 1  1.3 8.79475 -5.23115 9.461 
606 2  -0.65 12.8608 -7.40985 7.88105 
607 2  -0.65 14.7287 -5.57215 8.19085 
608 2  -0.65 -13.5007 -4.35365 8.878 
609 2  -0.65 -6.56095 -4.8483 9.44895 
610 2  -0.65 9.9576 -4.8889 8.39065 
611 2  -0.65 12.1192 -3.2734 8.18985 
612 1  1.3 15.9438 -4.8362 9.0454 
613 1  1.3 -16.1273 -1.4986 9.0118 
614 2  -0.65 -15.4468 -0.97805 7.66345 
615 2  -0.65 -15.1599 -2.48405 9.90455 
616 2  -0.65 -16.6444 -0.17465 9.8354 
617 2  -0.65 -10.0875 -2.41745 8.35865 
618 2  -0.65 -7.62445 -0.9517 8.32465 
619 1  1.3 -8.89185 -1.65685 9.12155 
620 2  -0.65 -9.63905 -0.3985 9.8459 
621 2  -0.65 11.3893 -1.26935 9.89005 
622 1  1.3 12.555 -2.32495 9.46045 
623 1  1.3 14.2872 -0.36515 7.697 
624 2  -0.65 13.8108 -1.46625 8.80365 
625 2  -0.65 -13.0856 0.41675 7.9969 
626 2  -0.65 -13.7873 2.3834 9.69425 
627 1  1.3 -12.5681 1.35365 9.28885 
628 2  -0.65 -11.3921 2.2834 8.6198 
629 1  1.3 8.8586 1.84775 8.61055 
630 2  -0.65 7.7387 2.23405 9.7803 
631 2  -0.65 10.0742 0.971498 9.1525 
632 2  -0.65 15.6019 0.235998 8.5384 
633 1  1.3 16.2654 1.59925 9.2545 
634 1  1.3 -10.7885 3.3179 7.50205 
635 2  -0.65 -10.2969 4.5755 8.40375 
636 2  -0.65 -7.7054 4.56325 9.2789 
637 2  -0.65 9.41325 3.3049 8.1111 
638 2  -0.65 13.7233 4.9175 9.0878 
639 2  -0.65 14.9947 2.60485 9.4856 
640 2  -0.65 -14.8758 5.72815 8.19245 
641 2  -0.65 -11.7322 7.36275 9.82235 
642 1  1.3 -9.0425 5.40915 8.8445 
643 2  -0.65 -8.4633 6.2958 7.602 
644 2  -0.65 -5.9716 7.36595 8.0176 
645 2  -0.65 -2.1574 6.89805 9.8618 
646 1  1.3 7.0973 6.6445 7.52085 
647 1  1.3 5.37865 5.12745 9.6724 
648 2  -0.65 6.5419 5.69525 8.68285 
649 2  -0.65 8.4447 7.4588 8.1362 
650 2  -0.65 11.313 5.388 8.1974 
651 1  1.3 12.5807 6.1502 8.8742 
652 2  -0.65 13.1737 7.2066 7.78715 
653 2  -0.65 -13.1614 7.6313 7.58705 
654 2  -0.65 -13.4885 9.5385 9.48975 
655 1  1.3 -12.4588 8.46045 8.80755 
656 2  -0.65 -11.1786 9.2632 8.0723 
657 1  1.3 -5.29765 8.49095 9.0148 
658 2  -0.65 -6.3849 9.56445 9.4602 
659 2  -0.65 -4.10775 9.2089 8.2171 
660 1  1.3 1.85895 8.82665 8.40715 
661 2  -0.65 0.71925 9.13155 9.5828 
662 2  -0.65 3.05785 8.0746 9.23315 
663 1  1.3 9.0146 8.74555 9.0578 
664 2  -0.65 7.7424 9.74535 9.42375 
665 2  -0.65 10.2087 9.49405 8.18905 
666 2  -0.65 -9.93715 11.6603 8.4683 
667 2  -0.65 -7.54025 11.9118 9.3834 
668 1  1.3 -3.4493 10.5644 7.5145 
669 2  -0.65 -2.86895 11.5542 8.72215 
670 1  1.3 -1.4723 12.1514 9.43915 
671 2  -0.65 2.39485 10.1523 7.6741 
672 2  -0.65 4.2668 12.1441 8.09825 
673 2  -0.65 6.78785 12.1793 9.1623 
674 1  1.3 10.8036 10.9192 7.63685 
675 2  -0.65 11.3913 11.5942 8.96365 
676 1  1.3 -8.7924 12.7892 8.7537 
677 2  -0.65 -9.3242 13.8289 9.88545 
678 2  -0.65 -5.93615 14.5847 7.6761 
679 2  -0.65 -0.403299 12.5971 8.3503 
680 2  -0.65 1.2333 14.6733 7.79585 
681 1  1.3 5.48995 13.0613 8.67765 
682 1  1.3 -5.2033 15.7798 8.5501 
683 2  -0.65 -3.79605 15.2439 9.2212 
684 1  1.3 1.78405 15.92 8.72095 
685 2  -0.65 0.442549 16.6314 9.4532 
686 2  -0.65 3.0065 15.5983 9.78265 
687 1  1.3 -5.26085 -15.7302 11.6985 
688 2  -0.65 3.05215 -15.8455 12.206 
689 2  -0.65 -9.9046 -13.532 12.1964 
690 2  -0.65 -4.8554 -14.6206 10.6122 
691 2  -0.65 -3.1153 -12.7051 11.0949 
692 2  -0.65 -0.882099 -13.4536 12.4703 
693 2  -0.65 2.3275 -13.7262 10.6911 
694 2  -0.65 4.67195 -14.682 10.3282 
695 1  1.3 3.5588 -14.5059 11.4538 
696 2  -0.65 -8.41545 -11.7628 10.8181 
697 1  1.3 -8.91725 -12.1688 12.3088 
698 2  -0.65 -5.9739 -10.6168 10.9708 
699 1  1.3 -1.93415 -12.2772 12.122 
700 2  -0.65 -1.208 -10.8844 11.5595 
701 1  1.3 -0.0389996 -10.1842 10.7504 
702 2  -0.65 1.2299 -11.2371 10.4626 
703 2  -0.65 6.16455 -12.0413 12.1182 
704 1  1.3 6.92885 -10.9476 11.2365 
705 2  -0.65 8.2877 -11.6506 10.6258 
706 2  -0.65 -13.893 -9.04955 11.7601 
707 1  1.3 -12.575 -8.2434 12.301 
708 2  -0.65 -9.64425 -7.71895 10.0379 
709 1  1.3 -5.38185 -9.6869 12.1826 
710 2  -0.65 -4.18275 -8.80355 11.5608 
711 2  -0.65 0.504198 -9.0429 11.7322 
712 1  1.3 1.7387 -8.2248 12.4137 
713 2  -0.65 7.60165 -9.7065 12.0973 
714 2  -0.65 10.0935 -8.43055 12.1104 
715 1  1.3 -15.953 -5.4237 12.1253 
716 2  -0.65 -12.0671 -7.2185 11.1411 
717 1  1.3 -10.7475 -6.59535 10.4321 
718 2  -0.65 -10.0052 -5.57755 11.4445 
719 1  1.3 -3.69745 -7.3835 10.9511 
720 2  -0.65 -4.9845 -6.6939 10.3194 
721 2  -0.65 -3.05985 -6.42725 12.1549 
722 2  -0.65 2.5133 -7.23885 11.3315 
723 1  1.3 3.73915 -7.0538 10.2898 
724 2  -0.65 5.03185 -6.4083 11.1559 
725 1  1.3 5.50495 -5.3157 12.1726 
726 2  -0.65 9.3509 -6.3212 10.5276 
727 1  1.3 10.507 -7.44315 10.9057 
728 2  -0.65 11.678 -6.46855 11.4581 
729 2  -0.65 13.7552 -5.05055 12.3793 
730 2  -0.65 -15.246 -4.85515 10.7503 
731 1  1.3 -14.1896 -3.7464 10.1772 
732 2  -0.65 -12.9671 -3.39275 11.1967 
733 2  -0.65 -8.2442 -2.7142 10.1402 
734 2  -0.65 -7.55585 -4.5811 11.8365 
735 1  1.3 -6.98905 -3.6885 10.5647 
736 2  -0.65 5.94235 -3.90565 11.4408 
737 1  1.3 7.10505 -2.94965 10.7379 
738 2  -0.65 8.3386 -3.8698 10.2641 
739 2  -0.65 13.0576 -3.19345 10.6786 
740 1  1.3 14.3203 -3.87595 11.4173 
741 2  -0.65 14.8401 -2.6218 12.2839 
742 2  -0.65 15.5808 -4.2326 10.4866 
743 2  -0.65 -11.1791 -1.5307 11.7685 
744 1  1.3 -10.6351 -0.0508499 11.1419 
745 1  1.3 -12.4068 -2.42895 12.354 
746 2  -0.65 7.60615 -1.73455 11.711 
747 2  -0.65 9.7758 -0.0749016 11.7065 
748 2  -0.65 -12.0013 0.54635 10.5304 
749 2  -0.65 -9.9852 1.0066 12.2495 
750 2  -0.65 6.73265 2.0416 12.2737 
751 1  1.3 10.764 0.198599 10.3823 
752 2  -0.65 12.0261 1.05775 10.9228 
753 1  1.3 12.5962 2.089 12.069 
754 2  -0.65 16.7873 1.01295 10.7021 
755 2  -0.65 -15.5442 4.3226 10.2863 
756 2  -0.65 -14.8108 2.6973 12.1746 
757 1  1.3 -14.3027 3.4082 10.8019 
758 2  -0.65 -13.1093 4.3917 11.2544 
759 2  -0.65 -8.3351 2.83 11.1571 
760 1  1.3 -7.06095 3.36805 10.2704 
761 2  -0.65 -5.84705 4.0788 11.1196 
762 2  -0.65 5.9427 3.93085 10.6486 
763 1  1.3 7.29515 3.09235 11.1157 
764 2  -0.65 8.44925 4.12905 11.4675 
765 2  -0.65 13.3139 3.39895 11.383 
766 1  1.3 14.3438 3.8927 10.2222 
767 2  -0.65 15.5597 4.6072 11.0038 
768 1  1.3 -10.5732 7.0619 10.9936 
769 2  -0.65 -11.1552 5.94295 12.0158 
770 2  -0.65 -9.3745 6.4146 10.1091 
771 1  1.3 -5.2583 5.03225 12.3446 
772 2  -0.65 -3.9281 5.8048 11.6417 
773 1  1.3 -3.30585 7.16335 10.9752 
774 2  -0.65 2.4526 7.08975 11.7689 
775 2  -0.65 4.5886 6.22775 10.541 
776 2  -0.65 12.188 6.9174 10.228 
777 2  -0.65 10.3099 5.9823 11.8652 
778 1  1.3 10.8834 7.29515 11.1923 
779 2  -0.65 -10.055 8.3779 11.8909 
780 1  1.3 -8.9302 9.3258 12.4559 
781 2  -0.65 -4.66535 7.71905 10.2919 
782 2  -0.65 -2.76435 8.1194 12.1548 
783 2  -0.65 -0.24305 8.95075 12.0508 
784 1  1.3 0.277401 9.9974 10.866 
785 1  1.3 3.60795 7.5408 10.6979 
786 2  -0.65 4.48855 8.771 11.4242 
787 1  1.3 5.5594 9.5739 12.3333 
788 2  -0.65 9.71835 8.09565 10.4232 
789 2  -0.65 11.5857 8.02185 12.4478 
790 2  -0.65 13.9473 9.43355 12.3212 
791 2  -0.65 -8.28345 10.1342 11.219 
792 1  1.3 -7.02555 10.722 10.3788 
793 2  -0.65 -5.83885 11.2137 11.4182 
794 1  1.3 -5.04725 12.4442 12.1676 
795 2  -0.65 -0.874651 10.9855 10.3982 
796 2  -0.65 1.5042 10.9193 11.4085 
797 1  1.3 1.98955 12.337 12.1315 
798 1  1.3 7.3073 11.0922 10.2339 
799 2  -0.65 6.1865 10.6059 11.3146 
800 2  -0.65 8.62575 11.6842 10.9215 
801 1  1.3 9.2495 12.4456 12.2447 
802 2  -0.65 -4.5769 13.6322 11.1413 
803 1  1.3 -3.2547 14.4692 10.5623 
804 2  -0.65 -2.0252 13.4441 10.2789 
805 2  -0.65 2.4976 13.4338 11.0694 