LAMMPS (3 Mar 2020)
# Input file for uniaxial tensile loading of single crystal aluminum
# Mark Tschopp, November 2010

# ------------------------ INITIALIZATION ----------------------------
units 		real
dimension	3
boundary	p	p	p
atom_style	charge
#variable latparam equal 4.05

# ----------------------- ATOM DEFINITION ----------------------------
read_data	amo_silica2.data.alpha
  orthogonal box = (-50 -50 0) to (50 50 50)
  1 by 1 by 1 MPI processor grid
  reading atoms ...
  2673 atoms
  read_data CPU = 0.00694424 secs

# ------------------------ FORCE FIELDS ------------------------------
pair_style      reax/c lmp_control
pair_coeff      * * ffield_Li_Si_Al_O Si O
WARNING: Changed valency_val to valency_boc for X (../reaxc_ffield.cpp:315)

# ------------------------- SETTINGS ---------------------------------
compute peratom all pe/atom
compute csym all centro/atom 12
compute reax all pair reax/c

######################################
# EQUILIBRATION
reset_timestep	0
timestep 0.01
velocity all create 300 12345 mom yes rot no
fix 1 all npt temp 300 300 1 iso 0 0 1 drag 1
fix 3 all qeq/reax 1 0.0 10.0 1e-6 reax/c
# Set thermo output
thermo 200
thermo_style custom step lx ly lz press pxx pyy pzz pe temp

# Run for at least 10 picosecond (assuming 1 fs timestep)
run 25000
Neighbor list info ...
  update every 1 steps, delay 10 steps, check yes
  max neighbors/atom: 2000, page size: 100000
  master list distance cutoff = 12
  ghost atom cutoff = 12
  binsize = 6, bins = 17 17 9
  3 neighbor lists, perpetual/occasional/extra = 2 1 0
  (1) pair reax/c, perpetual
      attributes: half, newton off, ghost
      pair build: half/bin/newtoff/ghost
      stencil: half/ghost/bin/3d/newtoff
      bin: standard
  (2) compute centro/atom, occasional
      attributes: full, newton on
      pair build: full/bin/atomonly
      stencil: full/bin/3d
      bin: standard
  (3) fix qeq/reax, perpetual, copy from (1)
      attributes: half, newton off, ghost
      pair build: copy
      stencil: none
      bin: none
Per MPI rank memory allocation (min/avg/max) = 84.12 | 84.12 | 84.12 Mbytes
Step Lx Ly Lz Press Pxx Pyy Pzz PotEng Temp 
       0          100          100           50   -632.32283   -909.03079   -635.65278   -352.28493   -371382.85          300 
     200    99.241952    99.241952    49.620976   -42.338815   -369.24762    148.69551     93.53567   -372488.82    394.24465 
     400    99.213181    99.213181    49.606591  -0.83880956   -496.89223    657.10449   -162.72869   -373577.76    423.51875 
     600    99.289036    99.289036    49.644518   -8.5772585   -500.87728    379.37069    95.774808   -374523.31    425.72646 
     800    99.387508    99.387508    49.693754    10.726086   -421.19066    236.49598    216.87293   -375394.96    419.88528 
    1000    99.424932    99.424932    49.712466  -0.36372798   -563.99627     582.2549   -19.349807   -376230.77    412.91428 
    1200    99.471516    99.471516    49.735758   0.50467917   -631.27573    336.11658    296.67318   -376896.72    396.88075 
    1400    99.478817    99.478817    49.739408   -14.804768   -733.05672    441.57838    247.06404   -377599.66    392.30873 
    1600    99.370946    99.370946    49.685473   -2.7772686   -647.17579    170.29702    468.54697   -378174.32    380.83365 
    1800    99.246047    99.246047    49.623024    7.5280806   -540.29613    342.97828     219.9021   -378727.68    371.84067 
    2000     99.23357     99.23357    49.616785    5.8440628   -559.21855    499.36544    77.385294   -379102.13    353.83562 
    2200    99.194506    99.194506    49.597253    -5.886026   -655.80529    305.29767    332.84954   -379498.09    350.55076 
    2400    99.127041    99.127041     49.56352    12.405355   -717.52625    607.91705    146.82527   -379845.07    341.68492 
    2600    99.254975    99.254975    49.627488   -18.811011   -660.46886    514.27049    89.765346    -380087.8    332.29949 
    2800    99.275815    99.275815    49.637908   -3.1334538   -384.76795     204.2743    171.09329   -380342.26    327.74446 
    3000     99.19143     99.19143    49.595715     6.022228   -361.78752    521.00583   -141.15162   -380599.09    326.01984 
    3200     99.17457     99.17457    49.587285    2.7114823   -378.35197    168.86122    217.62519   -380801.79    321.15879 
    3400    99.182742    99.182742    49.591371   -15.867053   -520.95032    214.12744    259.22172   -381048.01    323.61863 
    3600    99.110621    99.110621     49.55531   -7.3768523    -386.4113    300.72899    63.551756   -381296.94    322.48563 
    3800    99.040504    99.040504    49.520252   -9.1608311   -343.89423    292.35695    24.054782   -381419.95    313.89441 
    4000    98.959589    98.959589    49.479794      3.20773   -386.36946    362.13479    33.857859   -381668.37    318.09531 
    4200    98.905208    98.905208    49.452604   0.80316609   -336.22185    65.673061    272.95829    -381853.4    318.70877 
    4400    98.906407    98.906407    49.453204   -8.6288351   -387.32002    179.12581     182.3077   -382061.05    318.98043 
    4600    98.900534    98.900534    49.450267   -22.233836   -320.02957    675.77932   -422.45126   -382191.74    311.82264 
    4800    98.875438    98.875438    49.437719   -13.572419   -232.02691   -76.323591    267.63325   -382408.55    317.77807 
    5000    98.865592    98.865592    49.432796  -0.17152817   -94.778967    321.12201   -226.85763    -382489.8    308.08885 
    5200    98.880672    98.880672    49.440336    14.177074   -128.29764    255.76126   -84.932394   -382613.12    309.20358 
    5400    98.879957    98.879957    49.439978    13.895556   -191.80331    156.16529    77.324687    -382763.6    308.78643 
    5600    98.889815    98.889815    49.444907   -5.4394023    30.734444    56.153721   -103.20637      -382861    306.43969 
    5800    98.882321    98.882321     49.44116    22.758561    -151.2968    226.36269   -6.7902075   -382955.75     305.1353 
    6000    98.890917    98.890917    49.445459   -22.153873   -72.635461    330.28761   -324.11377   -383072.03     307.9252 
    6200    98.937614    98.937614    49.468807    15.357827   -120.68938    311.43209   -144.66923   -383111.57    301.95399 
    6400    98.968979    98.968979    49.484489   -18.405443   -221.76247    259.81629   -93.270147   -383219.39    307.09239 
    6600    98.923653    98.923653    49.461826   -9.5929492   -103.69171    122.62549   -47.712631   -383340.77    306.38722 
    6800    98.903901    98.903901    49.451951   -20.525345     20.59527   -145.48197     63.31066   -383467.09     306.0612 
    7000    98.913539    98.913539     49.45677    7.6703754   -21.083924    13.903299    30.191751   -383467.13    301.41073 
    7200    98.881063    98.881063    49.440532    11.044402   -45.533838    476.56685    -397.8998   -383610.55    309.09812 
    7400    98.839434    98.839434    49.419717   0.25311731   -37.111464   -293.27471    331.14553   -383619.34    301.07385 
    7600    98.817199    98.817199    49.408599   -32.740324   -178.40353    142.54342   -62.360856   -383747.93    306.27722 
    7800    98.839078    98.839078    49.419539   -27.597742   -169.89253    242.71351   -155.61421   -383827.24    304.75269 
    8000    98.837357    98.837357    49.418679   -6.3844102   -33.380516    396.01426   -381.78698   -383867.82    301.24981 
    8200    98.842875    98.842875    49.421437   -10.819889   -62.055009    25.351227    4.2441135   -383968.92    306.29839 
    8400    98.895534    98.895534    49.447767    1.3775864    63.065697   -54.315047   -4.6178908   -384016.31    303.77335 
    8600    98.952628    98.952628    49.476314    24.044919    177.29089    499.10807    -604.2642   -384014.14    299.41592 
    8800    98.948575    98.948575    49.474287    -8.973364    58.973864   -228.83331    142.93936   -384108.67    306.44679 
    9000    98.890927    98.890927    49.445463   -7.0316936    242.78601   -313.67639    49.795298   -384161.11    301.45983 
    9200    98.887262    98.887262    49.443631   -16.880095    46.985742    95.385956   -193.01198   -384234.39    303.49571 
    9400    98.877366    98.877366    49.438683    -0.985113   -27.0