LAMMPS (15 Apr 2020)
OMP_NUM_THREADS environment is not set. Defaulting to 1 thread. (../comm.cpp:94)
  using 1 OpenMP thread(s) per MPI task
# Input file for uniaxial tensile loading

# ------------------------ INITIALIZATION ----------------------------
units 		real
dimension	3
boundary	p	p	p
atom_style	charge
#variable latparam equal 4.05

# ----------------------- ATOM DEFINITION ----------------------------
read_data	SiNW_SiO2_5A.data
  orthogonal box = (0 0 0) to (50 50 50)
  1 by 1 by 1 MPI processor grid
  reading atoms ...
  1321 atoms
  read_data CPU = 0.043942 secs
# ------------------------ FORCE FIELDS ------------------------------
pair_style      reax/c lmp_control
pair_coeff      * * ffield_Li_Si_Al_O Si O
WARNING: Changed valency_val to valency_boc for X (../reaxc_ffield.cpp:315)

# ------------------------- SETTINGS ---------------------------------
compute peratom all pe/atom
compute csym all centro/atom 12
compute reax all pair reax/c

######################################
# EQUILIBRATION
reset_timestep	0
timestep 0.01
velocity all create 300 12345 mom yes rot no
fix 1 all npt temp 300 300 1 iso 0 0 1 drag 1
fix 3 all qeq/reax 1 0.0 10.0 1e-6 reax/c
# Set thermo output
thermo 200
thermo_style custom step lx ly lz press pxx pyy pzz pe temp

# Run for at least 10 picosecond (assuming 1 fs timestep)
run 10000
Neighbor list info ...
  update every 1 steps, delay 10 steps, check yes
  max neighbors/atom: 2000, page size: 100000
  master list distance cutoff = 12
  ghost atom cutoff = 12
  binsize = 6, bins = 9 9 9
  3 neighbor lists, perpetual/occasional/extra = 2 1 0
  (1) pair reax/c, perpetual
      attributes: half, newton off, ghost
      pair build: half/bin/newtoff/ghost
      stencil: half/ghost/bin/3d/newtoff
      bin: standard
  (2) compute centro/atom, occasional
      attributes: full, newton on
      pair build: full/bin/atomonly
      stencil: full/bin/3d
      bin: standard
  (3) fix qeq/reax, perpetual, copy from (1)
      attributes: half, newton off, ghost
      pair build: copy
      stencil: none
      bin: none
Per MPI rank memory allocation (min/avg/max) = 45.32 | 45.32 | 45.32 Mbytes
Step Lx Ly Lz Press Pxx Pyy Pzz PotEng Temp 
       0           50           50           50    9095.0243    7043.0931    7970.0512    12271.929   -152943.35          300 
     200     50.98784     50.98784     50.98784    66.743451   -846.20949   -2492.1087    3538.5485      -155541     685.4015 
     400    50.768673    50.768673    50.768673   -20.246436   -632.59677   -1158.6782    1730.5357   -158726.32    861.04544 
     600    50.590701    50.590701    50.590701    233.12016   -139.48292    405.46134    433.38206   -160856.97    756.35866 
     800     50.47025     50.47025     50.47025    -54.32238    -749.4601    232.87312    353.61983   -162353.82    656.01804 
    1000    50.375731    50.375731    50.375731    23.188304   -438.21576    685.43445   -177.65377   -163424.63    572.95764 
    1200    50.311038    50.311038    50.311038   0.27346807   -378.05461    895.72828   -516.85327   -164224.95    511.01818 
    1400    50.282855    50.282855    50.282855     1.088184   -1043.5249    846.69629    200.09316   -164864.73    467.65439 
    1600    50.255735    50.255735    50.255735    12.908078   -760.68926    342.34909     457.0644   -165349.75    431.41131 
    1800    50.269454    50.269454    50.269454  -0.89468998   -922.89769    597.42079    322.79283   -165740.83    404.73229 
    2000    50.317896    50.317896    50.317896   -7.2074906   -575.25846     607.3944   -53.758415   -166100.76    390.82607 
    2200    50.375145    50.375145    50.375145   -1.0882253    26.591447    599.06448    -628.9206   -166400.96     374.4384 
    2400    50.406944    50.406944    50.406944   -3.6080345    168.72409      123.229   -302.77719   -166707.57    372.18627 
    2600    50.397867    50.397867    50.397867   -4.6268335   -87.840556    202.52912   -128.56906   -167017.46    371.21744 
    2800    50.370825    50.370825    50.370825    11.644189    265.10212    384.29749   -614.46705   -167333.56    371.32545 
    3000    50.351495    50.351495    50.351495    8.2289188   -170.43694    469.67249    -274.5488   -167582.77    359.11853 
    3200    50.328706    50.328706    50.328706    6.4556701    333.28279    424.35577   -738.27156    -167815.1     353.2778 
    3400    50.332883    50.332883    50.332883   -5.4199913    526.00553    463.54821   -1005.8137   -168028.86    346.65049 
    3600     50.32532     50.32532     50.32532   -7.9833516   -48.684952    600.23515   -575.50026   -168259.47    348.39276 
    3800    50.325389    50.325389    50.325389   -6.6834485   -19.343654    539.02039   -539.72709   -168448.16    340.83789 
    4000    50.318879    50.318879    50.318879    1.8071324    454.00678    352.38599   -800.97138   -168613.84    334.81187 
    4200    50.303931    50.303931    50.303931   -4.6692781    676.16775    53.609655   -743.78524   -168770.15    331.06365 
    4400    50.279061    50.279061    50.279061   -1.3487199   -198.39055    51.067019    143.27737   -168948.44    333.44432 
    4600    50.265643    50.265643    50.265643   -4.8800463   -81.258128    53.846608    12.771382   -169114.68    332.44915 
    4800    50.248417    50.248417    50.248417   -2.1029323    153.12533    177.27505   -336.70918   -169289.78     333.4936 
    5000     50.22071     50.22071     50.22071   -4.8406937    402.16666    76.460025   -493.14877   -169456.71    331.89717 
    5200    50.206535    50.206535    50.206535   0.96384694   -259.51365    315.31751   -52.912312   -169586.38     325.5661 
    5400    50.195238    50.195238    50.195238   -10.566002    76.054869    269.04499   -376.79787   -169716.35    323.54265 
    5600    50.166237    50.166237    50.166237     2.474475    427.33022    97.983993   -517.89078   -169846.63    322.49085 
    5800     50.15559     50.15559     50.15559    -4.248606   -206.50726    429.79859   -236.03715   -169948.76    317.59435 
    6000    50.161403    50.161403    50.161403    1.2712919     134.5602   -12.910988   -117.83534   -170056.25    316.74887 
    6200    50.154052    50.154052    50.154052    11.226638    539.43606    -751.1621    245.40595   -170162.45     316.5392 
    6400    50.147962    50.147962    50.147962    2.8253213    426.96733   -235.51588   -182.97548   -170295.96    321.29758 
    6600     50.12984     50.12984     50.12984   -1.6395266    962.71271   -461.18494   -506.44635   -170402.79    317.75646 
    6800    50.100403    50.100403    50.100403    2.3494964    399.32453   -327.24488   -65.031162   -170514.96    316.93824 
    7000    50.059927    50.059927    50.059927    -5.696003     485.1639   -662.03186    159.77995   -170602.65    313.78137 
    7200    50.025419    50.025419    50.025419   -17.015115    772.71115   -636.67787   -187.07862   -170691.64    312.59699 
    7400    50.002514    50.002514    50.002514   -6.0495481    383.43583   -368.54298   -33.041501   -170772.68    311.02826 
    7600    49.987638    49.987638    49.987638   -8.6708589    535.63112   -717.79429     156.1506   -170860.38     311.9369 
    7800      49.9597      49.9597      49.9597   -18.811786    923.33401   -814.23195   -165.53742   -170963.92    313.90941 
    8000    49.932865    49.932865    49.932865   -1.3812358     918.3581   -685.84033   -236.66148   -171057.14    313.44486 
    8200    49.920532    49.920532    49.920532    7.0343701    776.16263   -517.45378   -237.60574   -171149.33    312.97472 
    8400    49.913389    49.913389    49.913389    1.2641508    725.12163   -149.11019   -572.21898   -171235.83    311.82572 
    8600    49.906265    49.906265    49.906265    5.4043129    492.16669   -471.18418   -4.7695668   -171314.81    310.38038 
    8800    49.898056    49.898056    49.898056   -7.9366464    469.45959   -403.66314   -89.606383   -171397.96     310.3264 
    9000    49.874134    49.874134    49.874134   -6.5220614    517.41244   -270.78203    -266.1966   -171468.63     309.0825 
    9200    49.849919    49.849919    49.849919   -5.7090219    672.74285   -499.83354   -190.03638   -171525.84    306.60964 
    9400    49.836686    49.836686    49.836686   0.31690449    874.08096     -477.779   -395.35125    -171587.5    306.52599 
    9600    49.821353    49.821353    49.821353    1.0504912    917.76328   -471.03232   -443.57949   -171645.88    306.46018 
    9800    49.799504    49.799504    49.799504  -0.14043011    127.02509    153.26033   -280.70671   -171689.69    304.66552 
   10000    49.784595    49.784595    49.784595   -1.8802853    83.537135    234.26351    -323.4415   -171746.42    306.36203 
Loop time of 1007.25 on 1 procs for 10000 steps with 1321 atoms

Performance: 0.009 ns/day, 2797.917 hours/ns, 9.928 timesteps/s
97.7% CPU use with 1 MPI tasks x 1 OpenMP threads

MPI task timing breakdown:
Section |  min time  |  avg time  |  max time  |%varavg| %total
---------------------------------------------------------------
Pair    | 814.68     | 814.68     | 814.68     |   0.0 | 80.88
Neigh   | 0.03643    | 0.03643    | 0.03643    |   0.0 |  0.00
Comm    | 0.084595   | 0.084595   | 0.084595   |   0.0 |  0.01
Output  | 0.44752    | 0.44752    | 0.44752    |   0.0 |  0.04
Modify  | 191.92     | 191.92     | 191.92     |   0.0 | 19.05
Other   |            | 0.08518    |            |       |  0.01

Nlocal:    1321 ave 1321 max 1321 min
Histogram: 1 0 0 0 0 0 0 0 0 0
Nghost:    638 ave 638 max 638 min
Histogram: 1 0 0 0 0 0 0 0 0 0
Neighs:    184107 ave 184107 max 184107 min
Histogram: 1 0 0 0 0 0 0 0 0 0
FullNghs:  0 ave 0 max 0 min
Histogram: 1 0 0 0 0 0 0 0 0 0

Total # of neighbors = 184107
Ave neighs/atom = 139.369
Neighbor list builds = 5
Dangerous builds = 1
unfix 1

# Store final cell length for strain calculations
variable tmp equal "lz"
variable L0 equal ${tmp}
variable L0 equal 49.7845949281262
print "Initial Length, L0: ${L0}"
Initial Length, L0: 49.7845949281262

######################################
# DEFORMATION
reset_timestep	0

fix		1 all npt temp 300 300 1 x 0 0 1 y 0 0 1 drag 1
variable srate equal 1.0e10
variable srate1 equal "v_srate / 1.0e12"
fix		2 all deform 1 z erate ${srate1} remap x units box
fix		2 all deform 1 z erate 0.01 remap x units box

# Output strain and stress info to file
# for units metal, pressure is in [bars] = 100 [kPa] = 1/10000 [GPa]
# p2, p3, p4 are in GPa
variable strain equal "(lz - v_L0)/v_L0"
variable p1 equal "v_strain"
variable p2 equal "-pxx/10000"
variable p3 equal "-pyy/10000"
variable p4 equal "-pzz/10000"
fix def1 all print 100 "${p1} ${p2} ${p3} ${p4}" file SiNT_100.def1.txt screen no

# Use cfg for AtomEye
dump 		1 all custom 100 dump.tensile id type x y z c_csym c_peratom fx fy fz


# Display thermo
thermo 	200
thermo_style	custom step v_strain temp v_p2 v_p3 v_p4 ke pe press

run		15000
Per MPI rank memory allocation (min/avg/max) = 48.1 | 48.1 | 48.1 Mbytes
Step v_strain Temp v_p2 v_p3 v_p4 KinEng PotEng Press 
       0 -7.1361707e-16    306.36203 -0.0083498412 -0.023422497   0.03234803    1205.4333   -171746.42   -1.9189717 
     200         0.02    313.36891 -0.003415497 -0.0037328033   0.99803188     1233.003   -171606.39   -3302.9453 
     400         0.04    325.16972 -0.0003146828  -0.00239713    1.4371677    1279.4353   -171320.55   -4781.5195 
     600         0.06    327.49152 0.0026101718 0.0020623301    1.9040645    1288.5708   -170876.97   -6362.4567 
     800         0.08    339.24816 0.0027268526 0.0023998902    2.3385849    1334.8293    -170338.1   -7812.3721 
    1000          0.1    352.23499 -0.00059741332 0.0003760844    2.7565945    1385.9282   -169714.86   -9187.9106 
    1200         0.12    366.34205 0.00079894547 0.00070277042    3.0504161    1441.4348   -169041.72   -10173.059 
    1400         0.14    380.18469 0.00021270254 -0.00034351413    3.3616786     1495.901   -168329.47   -11205.159 
    1600         0.16    395.86699 -0.0010618516 -0.0015655123    3.6587769    1557.6057   -167596.33   -12187.165 
    1800         0.18    406.61776 0.0015505984 0.0014575108     3.903431    1599.9064   -166824.07   -13021.464 
    2000          0.2    414.53363 -9.3297494e-05 5.1259552e-05     4.102678    1631.0527   -166025.84   -13675.453 
    2200         0.22    422.50357 0.00090635399 0.00058756835    4.3077188    1662.4118    -165213.9   -14364.042 
    2400         0.24    431.10911 0.0010445458 0.00097202661    4.5375992    1696.2717   -164391.15   -15132.053 
    2600         0.26    439.97294 0.0004376217 0.00036671106    4.7647269     1731.148   -163556.39   -15885.104 
    2800         0.28     444.2636 0.00037160501 0.00072799549    4.9273875    1748.0303   -162697.12    -16428.29 
    3000          0.3    449.50414 0.00019189989 0.0001354396    5.0830808    1768.6501   -161837.78   -16944.694 
    3200         0.32    457.58485 0.00021107226 0.00027693995    5.2383448     1800.445   -160998.39   -17462.776 
    3400         0.34    462.79843 0.00037469595 0.00023406215    5.3794911    1820.9588   -160162.48   -17933.666 
    3600         0.36    466.58653 0.00056973465 0.00040570652     5.500415    1835.8637   -159327.73   -18337.968 
    3800         0.38    469.92576 0.00017218276 4.5126714e-05     5.641752    1849.0024   -158498.28   -18806.564 
    4000          0.4    474.81438 -6.0093348e-05 0.00011457332    5.7259486    1868.2375   -157688.68   -19086.677 
    4200         0.42    476.73366 0.00046186338 0.00046090721    5.8657728    1875.7893   -156882.11   -19555.652 
    4400         0.44    476.93039 -0.00017311654 -0.00026782409    5.9697114    1876.5634   -156066.61   -19897.568 
    4600         0.46    476.45077 -4.618808e-05 2.826827e-05    6.1011187    1874.6762   -155246.01   -20337.003 
    4800         0.48    477.28524 0.00011185416 0.00013292825    6.2405423    1877.9596   -154421.49   -20802.624 
    5000          0.5    479.59202 0.00021387653 0.00014968619    6.3977577     1887.036   -153596.99   -21327.071 
    5200         0.52    481.76727 0.0003434105 0.00022834689    6.5300709    1895.5949   -152774.88   -21768.809 
    5400         0.54     482.2684 0.00022290775 0.0002062469    6.6200093    1897.5666   -151953.25   -22068.128 
    5600         0.56    484.18237 0.0001432373 0.0002642391    6.7720148    1905.0975   -151137.24   -22574.741 
    5800         0.58    488.86231 0.00057181431 0.00091286113    6.8757252    1923.5115   -150348.72   -22924.033 
    6000          0.6    483.90358 0.00034545977 0.00041212559     7.032568    1904.0006   -149513.43   -23444.419 
    6200         0.62    485.65729 0.00026917262 -0.00029431677    7.1911863    1910.9008   -148687.43   -23970.537 
    6400         0.64     489.1858 0.0008150967  0.000143994    7.2182766    1924.7843   -147889.56   -24064.119 
    6600         0.66    496.42826 -0.0010395349 -0.00081931035     7.319136     1953.281   -147145.15   -24390.924 
    6800         0.68    511.19384 0.00036204217 -3.3761396e-05    7.2530825    2011.3787   -146492.93   -24178.036 
    7000          0.7    507.78409 0.00037018341 0.0003728576    7.5075221    1997.9624   -145797.33    -25027.55 
    7200         0.72    512.48125 0.00045092823 0.00056578399    7.6655639    2016.4442   -145134.99   -25555.269 
    7400         0.74    519.54104 0.00012393427 -0.00011929661    7.9608544    2044.2222   -144488.19   -26536.197 
    7600         0.76    521.73824 1.2868436e-05 0.00015829905    7.9164074    2052.8674   -143839.67   -26388.595 
    7800         0.78    517.26698 0.00072907765 0.00033618167    7.9924241    2035.2745   -143172.56   -26644.965 
    8000          0.8    525.30897 0.00052559025 8.6295747e-05    8.2419729    2066.9171   -142573.32   -27475.282 
    8200         0.82    531.44663 0.00033437554 0.00035264007    8.5728114    2091.0667    -141946.7   -28578.328 
    8400         0.84    540.28409 0.00044995611 0.00018078741    8.6516177    2125.8392   -141359.01   -28840.828 
    8600         0.86    543.25572 6.8141923e-05 0.00060280277    8.7131217    2137.5316   -140796.73   -29045.976 
    8800         0.88    543.13712 0.00018985066 0.0003593621     9.093989    2137.0649   -140206.82   -30315.128 
    9000          0.9    548.21633 0.00057302742 -3.0332495e-05    8.9922571    2157.0499   -139626.11   -29975.999 
    9200         0.92    556.20614 0.00064319149 0.00041169868    9.1800422    2188.4872   -139114.43   -30603.657 
    9400         0.94    555.19818 0.00016251769 8.2660305e-05    9.2262418    2184.5212   -138579.47   -30754.957 
    9600         0.96    557.22611 0.00029355285 0.00018568202    9.4164832    2192.5004   -138058.76   -31389.875 
    9800         0.98    564.36637 7.2528866e-06 0.00010346317    9.5748386     2220.595   -137555.94   -31916.498 
   10000            1     568.5756 -7.3123561e-05 0.00034832814    9.6760823    2237.1569    -137063.8   -32254.525 
   10200         1.02    566.45577 0.00047059828 4.2904788e-05    9.5829224    2228.8161   -136577.51   -31944.786 
   10400         1.04    563.78196 0.00010937075 4.8232239e-05    9.5790431    2218.2956   -136096.17   -31930.669 
   10600         1.06    564.93259 -3.8493761e-05 9.6185769e-05    9.6378657    2222.8229   -135633.98   -32126.411 
   10800         1.08    567.40166 0.00038454146 0.00025703607    9.7885169    2232.5379   -135184.38   -32630.528 
   11000          1.1    567.95615 -0.00024368167 0.00081598524    9.6936166    2234.7196   -134743.63   -32313.963 
   11200         1.12    578.22258 8.1991442e-05 0.00041155173    9.6182574    2275.1146    -134392.3   -32062.503 
   11400         1.14    586.80703 3.274016e-05 0.00012864537     9.610812    2308.8916   -134100.73   -32036.578 
   11600         1.16    589.11272 -4.9676536e-05 -0.0001976824    9.6083735    2317.9637   -133840.92   -32027.087 
   11800         1.18    593.41442 -5.9549641e-05 8.3495963e-06    9.4899265    2334.8895   -133615.38   -31632.918 
   12000          1.2    600.05119 0.0003833021 0.00023961788    9.4616976     2361.003   -133455.32   -31541.068 
   12200         1.22    599.35251 -0.0003591471 -0.00020520861    9.3440597    2358.2539   -133302.77   -31144.985 
   12400         1.24    603.53548 3.4427642e-06 9.7276841e-05    9.2072447    2374.7125      -133206   -30691.151 
   12600         1.26    609.91914 -8.2907665e-05 0.00022010606     9.067503    2399.8301   -133183.87   -30225.467 
   12800         1.28     606.5877 1.7334942e-05 -8.4427851e-05    8.8276263     2386.722   -133166.85   -29425.197 
   13000          1.3    604.90312 4.8454077e-05 6.5159836e-05     8.699656    2380.0937   -133172.17   -28999.232 
   13200         1.32    609.37624 0.00030626682 0.00038095199    8.5349727     2397.694   -133244.51     -28452.2 
   13400         1.34     611.0818 0.00021220566 -0.00010092504    8.3480937    2404.4048   -133355.12    -27827.35 
   13600         1.36     604.2231 0.00011262874 0.00026831003    8.3075153    2377.4181   -133444.24   -27692.987 
   13800         1.38    605.72013 5.0363461e-05 2.0175944e-05    8.1699743    2383.3084    -133576.4   -27233.483 
   14000          1.4    607.42955 4.9389502e-05 -0.00022774541    8.0730197    2390.0344   -133737.19   -26909.471 
   14200         1.42    610.75874 0.00023528703 0.00011627991    7.9844851    2403.1337   -133942.48   -26616.122 
   14400         1.44    607.40462 0.0001771087 0.00027681566    7.7700569    2389.9363    -134161.5   -25901.703 
   14600         1.46    599.84726 0.00019239851 0.00036222037    7.6841619    2360.2006   -134356.19   -25615.722 
   14800         1.48    596.07358 0.00012791905 -1.1484815e-05    7.5171133    2345.3524   -134564.86   -25057.432 
   15000          1.5    594.16667 -5.0049747e-05 4.9412094e-06    7.4812945    2337.8493   -134780.35   -24937.498 
Loop time of 1826.03 on 1 procs for 15000 steps with 1321 atoms

Performance: 0.007 ns/day, 3381.529 hours/ns, 8.215 timesteps/s
93.7% CPU use with 1 MPI tasks x 1 OpenMP threads

MPI task timing breakdown:
Section |  min time  |  avg time  |  max time  |%varavg| %total
---------------------------------------------------------------
Pair    | 1555       | 1555       | 1555       |   0.0 | 85.16
Neigh   | 0.43859    | 0.43859    | 0.43859    |   0.0 |  0.02
Comm    | 0.21738    | 0.21738    | 0.21738    |   0.0 |  0.01
Output  | 4.3182     | 4.3182     | 4.3182     |   0.0 |  0.24
Modify  | 265.86     | 265.86     | 265.86     |   0.0 | 14.56
Other   |            | 0.1544     |            |       |  0.01

Nlocal:    1321 ave 1321 max 1321 min
Histogram: 1 0 0 0 0 0 0 0 0 0
Nghost:    1904 ave 1904 max 1904 min
Histogram: 1 0 0 0 0 0 0 0 0 0
Neighs:    126994 ave 126994 max 126994 min
Histogram: 1 0 0 0 0 0 0 0 0 0
FullNghs:  244587 ave 244587 max 244587 min
Histogram: 1 0 0 0 0 0 0 0 0 0

Total # of neighbors = 244587
Ave neighs/atom = 185.153
Neighbor list builds = 79
Dangerous builds = 0

######################################
# SIMULATION DONE
print "All done"
All done

Please see the log.cite file for references relevant to this simulation

Total wall time: 0:47:15
