Created by bestin,amorphous Silica coating-silicon nanotube

1161 atoms
2 atom types

-0.500000E+02 0.50000E+02 xlo xhi
-0.500000E+02 0.50000E+02 ylo yhi
0.0000000E+02 0.50000E+02 zlo zhi

Masses

1 28.0855
2 15.999

Atoms

1	1	0	5.50E+00	0.00E+00	0.00E+00
2	1	0	5.03E+00	2.24E+00	0.00E+00
3	1	0	4.45E+00	3.23E+00	2.00E+00
4	1	0	2.75E+00	4.77E+00	2.00E+00
5	1	0	1.70E+00	5.23E+00	-4.44E-16
6	1	0	-5.75E-01	5.47E+00	3.99E+00
7	1	0	-1.70E+00	5.23E+00	2.00E+00
8	1	0	-3.68E+00	4.09E+00	2.00E+00
9	1	0	-4.45E+00	3.23E+00	-8.88E-16
10	1	0	-5.38E+00	1.14E+00	3.99E+00
11	1	0	-5.50E+00	6.74E-16	2.00E+00
12	1	0	-5.03E+00	-2.24E+00	2.00E+00
13	1	0	-4.45E+00	-3.23E+00	-2.22E-15
14	1	0	-2.75E+00	-4.77E+00	3.99E+00
15	1	0	-1.70E+00	-5.23E+00	2.00E+00
16	1	0	5.75E-01	-5.47E+00	2.00E+00
17	1	0	1.70E+00	-5.23E+00	-1.33E-15
18	1	0	3.68E+00	-4.09E+00	3.99E+00
19	1	0	4.45E+00	-3.23E+00	2.00E+00
20	1	0	5.38E+00	-1.14E+00	2.00E+00
21	1	0	5.50E+00	0.00E+00	3.99E+00
22	1	0	5.03E+00	2.24E+00	3.99E+00
23	1	0	4.45E+00	3.23E+00	5.99E+00
24	1	0	2.75E+00	4.77E+00	5.99E+00
25	1	0	1.70E+00	5.23E+00	3.99E+00
26	1	0	-5.75E-01	5.47E+00	7.98E+00
27	1	0	-1.70E+00	5.23E+00	5.99E+00
28	1	0	-3.68E+00	4.09E+00	5.99E+00
29	1	0	-4.45E+00	3.23E+00	3.99E+00
30	1	0	-5.38E+00	1.14E+00	7.98E+00
31	1	0	-5.50E+00	6.74E-16	5.99E+00
32	1	0	-5.03E+00	-2.24E+00	5.99E+00
33	1	0	-4.45E+00	-3.23E+00	3.99E+00
34	1	0	-2.75E+00	-4.77E+00	7.98E+00
35	1	0	-1.70E+00	-5.23E+00	5.99E+00
36	1	0	5.75E-01	-5.47E+00	5.99E+00
37	1	0	1.70E+00	-5.23E+00	3.99E+00
38	1	0	3.68E+00	-4.09E+00	7.98E+00
39	1	0	4.45E+00	-3.23E+00	5.99E+00
40	1	0	5.38E+00	-1.14E+00	5.99E+00
41	1	0	5.50E+00	0.00E+00	7.98E+00
42	1	0	5.03E+00	2.24E+00	7.98E+00
43	1	0	4.45E+00	3.23E+00	9.98E+00
44	1	0	2.75E+00	4.77E+00	9.98E+00
45	1	0	1.70E+00	5.23E+00	7.98E+00
46	1	0	-5.75E-01	5.47E+00	1.20E+01
47	1	0	-1.70E+00	5.23E+00	9.98E+00
48	1	0	-3.68E+00	4.09E+00	9.98E+00
49	1	0	-4.45E+00	3.23E+00	7.98E+00
50	1	0	-5.38E+00	1.14E+00	1.20E+01
51	1	0	-5.50E+00	6.74E-16	9.98E+00
52	1	0	-5.03E+00	-2.24E+00	9.98E+00
53	1	0	-4.45E+00	-3.23E+00	7.98E+00
54	1	0	-2.75E+00	-4.77E+00	1.20E+01
55	1	0	-1.70E+00	-5.23E+00	9.98E+00
56	1	0	5.75E-01	-5.47E+00	9.98E+00
57	1	0	1.70E+00	-5.23E+00	7.98E+00
58	1	0	3.68E+00	-4.09E+00	1.20E+01
59	1	0	4.45E+00	-3.23E+00	9.98E+00
60	1	0	5.38E+00	-1.14E+00	9.98E+00
61	1	0	5.50E+00	0.00E+00	1.20E+01
62	1	0	5.03E+00	2.24E+00	1.20E+01
63	1	0	4.45E+00	3.23E+00	1.40E+01
64	1	0	2.75E+00	4.77E+00	1.40E+01
65	1	0	1.70E+00	5.23E+00	1.20E+01
66	1	0	-5.75E-01	5.47E+00	1.60E+01
67	1	0	-1.70E+00	5.23E+00	1.40E+01
68	1	0	-3.68E+00	4.09E+00	1.40E+01
69	1	0	-4.45E+00	3.23E+00	1.20E+01
70	1	0	-5.38E+00	1.14E+00	1.60E+01
71	1	0	-5.50E+00	6.74E-16	1.40E+01
72	1	0	-5.03E+00	-2.24E+00	1.40E+01
73	1	0	-4.45E+00	-3.23E+00	1.20E+01
74	1	0	-2.75E+00	-4.77E+00	1.60E+01
75	1	0	-1.70E+00	-5.23E+00	1.40E+01
76	1	0	5.75E-01	-5.47E+00	1.40E+01
77	1	0	1.70E+00	-5.23E+00	1.20E+01
78	1	0	3.68E+00	-4.09E+00	1.60E+01
79	1	0	4.45E+00	-3.23E+00	1.40E+01
80	1	0	5.38E+00	-1.14E+00	1.40E+01
81	1	0	5.50E+00	0.00E+00	1.60E+01
82	1	0	5.03E+00	2.24E+00	1.60E+01
83	1	0	4.45E+00	3.23E+00	1.80E+01
84	1	0	2.75E+00	4.77E+00	1.80E+01
85	1	0	1.70E+00	5.23E+00	1.60E+01
86	1	0	-5.75E-01	5.47E+00	2.00E+01
87	1	0	-1.70E+00	5.23E+00	1.80E+01
88	1	0	-3.68E+00	4.09E+00	1.80E+01
89	1	0	-4.45E+00	3.23E+00	1.60E+01
90	1	0	-5.38E+00	1.14E+00	2.00E+01
91	1	0	-5.50E+00	6.74E-16	1.80E+01
92	1	0	-5.03E+00	-2.24E+00	1.80E+01
93	1	0	-4.45E+00	-3.23E+00	1.60E+01
94	1	0	-2.75E+00	-4.77E+00	2.00E+01
95	1	0	-1.70E+00	-5.23E+00	1.80E+01
96	1	0	5.75E-01	-5.47E+00	1.80E+01
97	1	0	1.70E+00	-5.23E+00	1.60E+01
98	1	0	3.68E+00	-4.09E+00	2.00E+01
99	1	0	4.45E+00	-3.23E+00	1.80E+01
100	1	0	5.38E+00	-1.14E+00	1.80E+01
101	1	0	5.50E+00	0.00E+00	2.00E+01
102	1	0	5.03E+00	2.24E+00	2.00E+01
103	1	0	4.45E+00	3.23E+00	2.20E+01
104	1	0	2.75E+00	4.77E+00	2.20E+01
105	1	0	1.70E+00	5.23E+00	2.00E+01
106	1	0	-5.75E-01	5.47E+00	2.40E+01
107	1	0	-1.70E+00	5.23E+00	2.20E+01
108	1	0	-3.68E+00	4.09E+00	2.20E+01
109	1	0	-4.45E+00	3.23E+00	2.00E+01
110	1	0	-5.38E+00	1.14E+00	2.40E+01
111	1	0	-5.50E+00	6.74E-16	2.20E+01
112	1	0	-5.03E+00	-2.24E+00	2.20E+01
113	1	0	-4.45E+00	-3.23E+00	2.00E+01
114	1	0	-2.75E+00	-4.77E+00	2.40E+01
115	1	0	-1.70E+00	-5.23E+00	2.20E+01
116	1	0	5.75E-01	-5.47E+00	2.20E+01
117	1	0	1.70E+00	-5.23E+00	2.00E+01
118	1	0	3.68E+00	-4.09E+00	2.40E+01
119	1	0	4.45E+00	-3.23E+00	2.20E+01
120	1	0	5.38E+00	-1.14E+00	2.20E+01
121	1	0	5.50E+00	0.00E+00	2.40E+01
122	1	0	5.03E+00	2.24E+00	2.40E+01
123	1	0	4.45E+00	3.23E+00	2.60E+01
124	1	0	2.75E+00	4.77E+00	2.60E+01
125	1	0	1.70E+00	5.23E+00	2.40E+01
126	1	0	-5.75E-01	5.47E+00	2.79E+01
127	1	0	-1.70E+00	5.23E+00	2.60E+01
128	1	0	-3.68E+00	4.09E+00	2.60E+01
129	1	0	-4.45E+00	3.23E+00	2.40E+01
130	1	0	-5.38E+00	1.14E+00	2.79E+01
131	1	0	-5.50E+00	6.74E-16	2.60E+01
132	1	0	-5.03E+00	-2.24E+00	2.60E+01
133	1	0	-4.45E+00	-3.23E+00	2.40E+01
134	1	0	-2.75E+00	-4.77E+00	2.79E+01
135	1	0	-1.70E+00	-5.23E+00	2.60E+01
136	1	0	5.75E-01	-5.47E+00	2.60E+01
137	1	0	1.70E+00	-5.23E+00	2.40E+01
138	1	0	3.68E+00	-4.09E+00	2.79E+01
139	1	0	4.45E+00	-3.23E+00	2.60E+01
140	1	0	5.38E+00	-1.14E+00	2.60E+01
141	1	0	5.50E+00	0.00E+00	2.79E+01
142	1	0	5.03E+00	2.24E+00	2.79E+01
143	1	0	4.45E+00	3.23E+00	2.99E+01
144	1	0	2.75E+00	4.77E+00	2.99E+01
145	1	0	1.70E+00	5.23E+00	2.79E+01
146	1	0	-5.75E-01	5.47E+00	3.19E+01
147	1	0	-1.70E+00	5.23E+00	2.99E+01
148	1	0	-3.68E+00	4.09E+00	2.99E+01
149	1	0	-4.45E+00	3.23E+00	2.79E+01
150	1	0	-5.38E+00	1.14E+00	3.19E+01
151	1	0	-5.50E+00	6.74E-16	2.99E+01
152	1	0	-5.03E+00	-2.24E+00	2.99E+01
153	1	0	-4.45E+00	-3.23E+00	2.79E+01
154	1	0	-2.75E+00	-4.77E+00	3.19E+01
155	1	0	-1.70E+00	-5.23E+00	2.99E+01
156	1	0	5.75E-01	-5.47E+00	2.99E+01
157	1	0	1.70E+00	-5.23E+00	2.79E+01
158	1	0	3.68E+00	-4.09E+00	3.19E+01
159	1	0	4.45E+00	-3.23E+00	2.99E+01
160	1	0	5.38E+00	-1.14E+00	2.99E+01
161	1	0	5.50E+00	0.00E+00	3.19E+01
162	1	0	5.03E+00	2.24E+00	3.19E+01
163	1	0	4.45E+00	3.23E+00	3.39E+01
164	1	0	2.75E+00	4.77E+00	3.39E+01
165	1	0	1.70E+00	5.23E+00	3.19E+01
166	1	0	-5.75E-01	5.47E+00	3.59E+01
167	1	0	-1.70E+00	5.23E+00	3.39E+01
168	1	0	-3.68E+00	4.09E+00	3.39E+01
169	1	0	-4.45E+00	3.23E+00	3.19E+01
170	1	0	-5.38E+00	1.14E+00	3.59E+01
171	1	0	-5.50E+00	6.73896456e-16	3.39E+01
172	1	0	-5.03E+00	-2.24E+00	3.39E+01
173	1	0	-4.45E+00	-3.23E+00	3.19E+01
174	1	0	-2.75E+00	-4.77E+00	3.59E+01
175	1	0	-1.70E+00	-5.23E+00	3.39E+01
176	1	0	5.75E-01	-5.47E+00	3.39E+01
177	1	0	1.70E+00	-5.23E+00	3.19E+01
178	1	0	3.68E+00	-4.09E+00	3.59E+01
179	1	0	4.45E+00	-3.23E+00	3.39E+01
180	1	0	5.38E+00	-1.14E+00	3.39E+01
181	1	0	5.50E+00	0.00E+00	3.59E+01
182	1	0	5.03E+00	2.24E+00	3.59E+01
183	1	0	4.45E+00	3.23E+00	3.79E+01
184	1	0	2.75E+00	4.77E+00	3.79E+01
185	1	0	1.70E+00	5.23E+00	3.59E+01
186	1	0	-5.75E-01	5.47E+00	3.99E+01
187	1	0	-1.70E+00	5.23E+00	3.79E+01
188	1	0	-3.68E+00	4.09E+00	3.79E+01
189	1	0	-4.45E+00	3.23E+00	3.59E+01
190	1	0	-5.38E+00	1.14E+00	3.99E+01
191	1	0	-5.50E+00	6.74E-16	3.79E+01
192	1	0	-5.03E+00	-2.24E+00	3.79E+01
193	1	0	-4.45E+00	-3.23E+00	3.59E+01
194	1	0	-2.75E+00	-4.77E+00	3.99E+01
195	1	0	-1.70E+00	-5.23E+00	3.79E+01
196	1	0	5.75E-01	-5.47E+00	3.79E+01
197	1	0	1.70E+00	-5.23E+00	3.59E+01
198	1	0	3.68E+00	-4.09E+00	3.99E+01
199	1	0	4.45E+00	-3.23E+00	3.79E+01
200	1	0	5.38E+00	-1.14E+00	3.79E+01
201 2  -0.65 -2.2881 -10.3555 0.238495 
202 2  -0.65 2.322 -11.1874 0.301227 
203 2  -0.65 4.7297 -10.0554 0.602565 
204 2  -0.65 -7.8823 -7.7619 1.11337 
205 2  -0.65 -2.95525 -8.42215 1.94494 
206 1  1.3 -1.70005 -9.2267 1.25013 
207 2  -0.65 -0.959801 -8.17765 0.278668 
208 2  -0.65 -0.642651 -9.76615 2.42519 
209 1  1.3 5.3195 -8.8922 1.58528 
210 2  -0.65 6.00725 -7.63065 0.75792 
211 2  -0.65 6.55845 -9.6352 2.3055 
212 1  1.3 -5.4219 -5.28115 0.79531 
213 2  -0.65 -3.9848 -5.93835 1.41444 
214 2  -0.65 8.40715 -6.5413 0.48267 
215 1  1.3 9.01045 -5.6215 1.65076 
216 1  1.3 -10.6466 -3.9729 0.539775 
217 2  -0.65 -10.1489 -2.67645 1.53507 
218 2  -0.65 -7.5885 -2.5425 2.18714 
219 2  -0.65 -6.4167 -4.8989 1.99934 
220 2  -0.65 7.86235 -4.6241 2.37043 
221 2  -0.65 10.2971 -4.84445 0.954 
222 1  1.3 10.9 -3.48205 0.239988 
223 1  1.3 -8.92175 -1.64915 1.75491 
224 2  -0.65 -8.44845 -0.807249 0.448435 
225 1  1.3 7.253 -0.3859 0.318137 
226 2  -0.65 11.3018 -2.2269 1.21237 
227 2  -0.65 -11.0058 1.25255 1.88462 
228 2  -0.65 8.4512 0.3407 1.15143 
229 1  1.3 8.88865 1.61135 2.07458 
230 2  -0.65 9.99865 2.4016 1.15683 
231 2  -0.65 -10.3286 4.72935 1.05104 
232 2  -0.65 6.5352 4.73415 2.11398 
233 2  -0.65 7.62325 2.523 2.41838 
234 1  1.3 10.598 3.76375 0.52427 
235 1  1.3 -9.05405 5.25515 1.96774 
236 2  -0.65 -7.7955 5.6445 0.957275 
237 2  -0.65 -6.0238 7.3997 0.272573 
238 2  -0.65 1.26425 7.43885 0.619885 
239 1  1.3 5.4346 5.78 1.65148 
240 2  -0.65 5.95725 6.82745 0.471211 
241 1  1.3 -5.32325 8.6972 1.07877 
242 2  -0.65 -6.5137 9.3295 1.93294 
243 2  -0.65 -4.01305 8.1476 1.83546 
244 2  -0.65 -4.8439 9.98805 0.270756 
245 1  1.3 1.79005 8.4978 1.77134 
246 2  -0.65 0.603951 9.54985 2.20957 
247 2  -0.65 2.93375 9.5359 1.19975 
248 2  -0.65 7.7348 8.6525 1.2703 
249 1  1.3 3.59325 10.533 0.111139 
250 2  -0.65 -1.1736 -11.8837 3.81864 
251 1  1.3 0.0330505 -11.0437 3.08144 
252 2  -0.65 1.19835 -10.6468 4.15997 
253 2  -0.65 -5.71215 -9.7306 3.73212 
254 1  1.3 -5.25545 -8.50135 4.65858 
255 2  -0.65 4.12075 -8.32485 2.522 
256 2  -0.65 2.9478 -8.93495 4.83397 
257 1  1.3 3.47385 -7.67675 3.91677 
258 2  -0.65 -4.6702 -7.3096 3.70129 
259 1  1.3 -3.48725 -7.02935 2.55399 
260 2  -0.65 4.8389 -6.91685 4.45966 
261 2  -0.65 9.5735 -6.6491 2.73205 
262 2  -0.65 -8.1621 -4.52575 3.89915 
263 1  1.3 -6.9551 -3.76905 3.04849 
264 2  -0.65 6.6861 -4.982 4.84114 
265 1  1.3 7.35595 -3.91875 3.7682 
266 2  -0.65 8.60135 -3.20125 4.44315 
267 2  -0.65 -11.8616 -0.2106 3.9357 
268 2  -0.65 -9.4255 -0.682249 2.93497 
269 2  -0.65 10.2158 -1.1975 4.62497 
270 2  -0.65 11.9484 -0.195999 3.00951 
271 1  1.3 -10.5534 0.42415 3.2458 
272 2  -0.65 -9.8829 1.5216 4.28093 
273 2  -0.65 9.56255 1.08385 3.47957 
274 1  1.3 10.7576 0.252449 4.1411 
275 2  -0.65 -7.6226 2.5554 4.79928 
276 2  -0.65 -8.4044 4.06285 2.96774 
277 1  1.3 -7.02495 3.38825 3.54558 
278 2  -0.65 -5.89385 4.5312 3.88939 
279 1  1.3 7.1096 3.81805 3.25597 
280 2  -0.65 8.2861 4.6419 3.95516 
281 2  -0.65 -9.55025 6.45765 2.99079 
282 1  1.3 -5.28015 5.6313 4.84685 
283 2  -0.65 -4.71985 6.9859 4.0585 
284 2  -0.65 4.8243 6.67855 2.88902 
285 1  1.3 3.57175 7.06065 3.9137 
286 2  -0.65 9.5227 6.89165 4.55977 
287 1  1.3 -3.473 7.5651 3.28341 
288 2  -0.65 -2.88985 8.8057 4.13334 
289 2  -0.65 2.28915 7.6611 3.09852 
290 2  -0.65 6.66985 9.31665 4.97878 
291 2  -0.65 -0.86595 10.5823 4.20537 
292 1  1.3 0.2202 10.9226 3.00853 
293 2  -0.65 1.49135 11.587 3.75305 
294 1  1.3 -3.57735 -10.0875 6.5895 
295 2  -0.65 -2.23545 -10.961 6.10405 
296 2  -0.65 2.35155 -10.7565 6.71545 
297 1  1.3 3.7054 -11.2613 7.4288 
298 2  -0.65 -6.6448 -8.04225 5.4576 
299 2  -0.65 -3.9886 -8.94765 5.5695 
300 1  1.3 1.76025 -9.86465 5.4939 
301 2  -0.65 0.544899 -8.8137 5.7965 
302 2  -0.65 8.34695 -7.56375 6.65145 
303 2  -0.65 -7.80485 -5.7134 6.27435 
304 2  -0.65 -9.98095 -6.1449 5.31405 
305 1  1.3 -7.32045 -7.214 6.71945 
306 1  1.3 0.0772514 -7.41735 6.5115 
307 2  -0.65 5.87735 -6.5137 6.86475 
308 1  1.3 5.40825 -5.75535 5.4814 
309 1  1.3 -10.7153 -3.0519 6.9871 
310 2  -0.65 -9.48885 -3.58645 6.0723 
311 1  1.3 -8.8516 -4.9093 5.33565 
312 2  -0.65 9.9839 -2.7729 6.67505 
313 1  1.3 10.9069 -4.01055 7.32015 
314 2  -0.65 -11.3832 -1.80395 6.1774 
315 1  1.3 -7.1604 -0.3533 6.835 
316 2  -0.65 7.8332 -1.2312 6.00785 
317 1  1.3 9.10815 -2.063 5.49705 
318 2  -0.65 -8.39485 0.368801 6.11475 
319 1  1.3 -8.9014 1.7813 5.50205 
320 1  1.3 7.1656 0.138199 6.6799 
321 2  -0.65 8.2406 1.07785 7.34925 
322 2  -0.65 11.3559 0.971048 5.5158 
323 2  -0.65 -9.49545 2.83245 6.57115 
324 1  1.3 10.6351 4.1269 7.4071 
325 2  -0.65 10.1173 4.72335 6.00455 
326 1  1.3 -7.1432 7.054 6.96335 
327 2  -0.65 -6.52715 6.08015 5.8204 
328 1  1.3 -0.00964928 7.2432 6.40785 
329 2  -0.65 7.6308 5.68675 6.26875 
330 1  1.3 8.9077 5.49805 5.20255 
331 2  -0.65 -7.71595 8.44975 6.32905 
332 1  1.3 -1.6993 9.51815 5.06295 
333 2  -0.65 -0.6057 8.3665 5.33405 
334 2  -0.65 1.29975 7.9393 7.17745 
335 2  -0.65 4.08945 8.11215 5.06935 
336 1  1.3 5.37685 8.73715 5.8377 
337 2  -0.65 5.98545 7.6445 6.9213 
338 2  -0.65 -2.23225 10.2308 6.44565 
339 1  1.3 3.6677 11.0404 7.0552 
340 2  -0.65 4.97295 10.1561 6.58075 
341 2  -0.65 4.62555 -10.0028 7.83 
342 2  -0.65 -8.5476 -7.85705 7.5027 
343 2  -0.65 -2.50155 -7.6902 9.8906 
344 2  -0.65 -3.1029 -9.2653 7.9271 
345 2  -0.65 -1.02205 -7.56335 7.6886 
346 2  -0.65 -0.738201 -9.55115 9.4433 
347 1  1.3 -1.81895 -8.60085 8.7101 
348 2  -0.65 4.2201 -8.5155 9.73075 
349 2  -0.65 6.688 -8.5023 8.54975 
350 1  1.3 5.45715 -9.3593 9.0617 
351 1  1.3 -5.47845 -5.9394 8.9911 
352 2  -0.65 -6.18895 -6.93465 7.85915 
353 1  1.3 7.1002 -7.1638 7.66605 
354 1  1.3 8.79475 -5.23115 9.461 
355 2  -0.65 7.5183 -5.95965 8.6774 
356 2  -0.65 -6.56095 -4.8483 9.44895 
357 2  -0.65 9.9576 -4.8889 8.39065 
358 2  -0.65 -10.0875 -2.41745 8.35865 
359 2  -0.65 -9.63905 -0.3985 9.8459 
360 1  1.3 -8.89185 -1.65685 9.12155 
361 2  -0.65 -7.62445 -0.9517 8.32465 
362 2  -0.65 11.3893 -1.26935 9.89005 
363 2  -0.65 -11.3921 2.2834 8.6198 
364 2  -0.65 7.7387 2.23405 9.7803 
365 1  1.3 8.8586 1.84775 8.61055 
366 2  -0.65 10.0742 0.971498 9.1525 
367 2  -0.65 -10.2969 4.5755 8.40375 
368 1  1.3 -10.7885 3.3179 7.50205 
369 2  -0.65 -7.7054 4.56325 9.2789 
370 2  -0.65 9.41325 3.3049 8.1111 
371 2  -0.65 -8.4633 6.2958 7.602 
372 1  1.3 -9.0425 5.40915 8.8445 
373 2  -0.65 -5.9716 7.36595 8.0176 
374 2  -0.65 -2.1574 6.89805 9.8618 
375 2  -0.65 6.5419 5.69525 8.68285 
376 1  1.3 5.37865 5.12745 9.6724 
377 1  1.3 7.0973 6.6445 7.52085 
378 2  -0.65 8.4447 7.4588 8.1362 
379 2  -0.65 -6.3849 9.56445 9.4602 
380 1  1.3 -5.29765 8.49095 9.0148 
381 2  -0.65 -4.10775 9.2089 8.2171 
382 2  -0.65 0.71925 9.13155 9.5828 
383 1  1.3 1.85895 8.82665 8.40715 
384 2  -0.65 3.05785 8.0746 9.23315 
385 2  -0.65 -2.86895 11.5542 8.72215 
386 1  1.3 -3.4493 10.5644 7.5145 
387 2  -0.65 2.39485 10.1523 7.6741 
388 1  1.3 -0.0389996 -10.1842 10.7504 
389 2  -0.65 -1.208 -10.8844 11.5595 
390 2  -0.65 1.2299 -11.2371 10.4626 
391 1  1.3 -5.38185 -9.6869 12.1826 
392 2  -0.65 -4.18275 -8.80355 11.5608 
393 1  1.3 1.7387 -8.2248 12.4137 
394 2  -0.65 0.504198 -9.0429 11.7322 
395 2  -0.65 -10.0052 -5.57755 11.4445 
396 2  -0.65 -3.05985 -6.42725 12.1549 
397 2  -0.65 -4.9845 -6.6939 10.3194 
398 1  1.3 -3.69745 -7.3835 10.9511 
399 1  1.3 3.73915 -7.0538 10.2898 
400 2  -0.65 2.5133 -7.23885 11.3315 
401 1  1.3 5.50495 -5.3157 12.1726 
402 2  -0.65 5.03185 -6.4083 11.1559 
403 2  -0.65 9.3509 -6.3212 10.5276 
404 2  -0.65 -7.55585 -4.5811 11.8365 
405 2  -0.65 -8.2442 -2.7142 10.1402 
406 1  1.3 -6.98905 -3.6885 10.5647 
407 1  1.3 7.10505 -2.94965 10.7379 
408 2  -0.65 5.94235 -3.90565 11.4408 
409 2  -0.65 8.3386 -3.8698 10.2641 
410 1  1.3 -10.6351 -0.0508499 11.1419 
411 2  -0.65 -11.1791 -1.5307 11.7685 
412 2  -0.65 9.7758 -0.0749016 11.7065 
413 2  -0.65 7.60615 -1.73455 11.711 
414 2  -0.65 -9.9852 1.0066 12.2495 
415 2  -0.65 6.73265 2.0416 12.2737 
416 1  1.3 10.764 0.198599 10.3823 
417 2  -0.65 -8.3351 2.83 11.1571 
418 2  -0.65 -5.84705 4.0788 11.1196 
419 1  1.3 -7.06095 3.36805 10.2704 
420 1  1.3 7.29515 3.09235 11.1157 
421 2  -0.65 5.9427 3.93085 10.6486 
422 2  -0.65 8.44925 4.12905 11.4675 
423 2  -0.65 -9.3745 6.4146 10.1091 
424 1  1.3 -5.2583 5.03225 12.3446 
425 1  1.3 -3.30585 7.16335 10.9752 
426 2  -0.65 -3.9281 5.8048 11.6417 
427 2  -0.65 2.4526 7.08975 11.7689 
428 2  -0.65 4.5886 6.22775 10.541 
429 2  -0.65 10.3099 5.9823 11.8652 
430 2  -0.65 -2.76435 8.1194 12.1548 
431 2  -0.65 -4.66535 7.71905 10.2919 
432 2  -0.65 -0.24305 8.95075 12.0508 
433 1  1.3 0.277401 9.9974 10.866 
434 2  -0.65 4.48855 8.771 11.4242 
435 1  1.3 3.60795 7.5408 10.6979 
436 1  1.3 5.5594 9.5739 12.3333 
437 2  -0.65 -0.874651 10.9855 10.3982 
438 2  -0.65 1.5042 10.9193 11.4085 
439 2  -0.65 -4.79695 -10.4405 13.5119 
440 1  1.3 -3.5808 -10.9824 14.4295 
441 2  -0.65 2.19085 -11.0731 14.9943 
442 1  1.3 3.38675 -10.1555 14.3688 
443 1  1.3 -7.17955 -7.58785 13.6918 
444 2  -0.65 -6.5577 -8.6943 12.7291 
445 2  -0.65 2.7772 -9.33985 13.0538 
446 2  -0.65 8.3674 -7.78615 13.8785 
447 2  -0.65 -8.40645 -6.7911 13.0049 
448 1  1.3 -8.8513 -5.3011 12.5458 
449 2  -0.65 -6.0535 -6.4265 14.0217 
450 1  1.3 -0.12175 -7.07655 14.6159 
451 2  -0.65 1.0915 -7.27045 13.6014 
452 2  -0.65 5.9276 -7.1834 14.8906 
453 1  1.3 7.3087 -6.651 14.2496 
454 2  -0.65 6.8418 -5.74785 12.9551 
455 1  1.3 -10.6082 -3.74635 14.5988 
456 2  -0.65 -9.3683 -4.47325 13.7822 
457 1  1.3 10.7886 -3.38135 14.0906 
458 2  -0.65 -8.2623 -0.63875 14.7433 
459 1  1.3 -7.0603 -0.0899487 13.8289 
460 2  -0.65 8.41715 -0.47855 14.0137 
461 1  1.3 8.9225 -1.17335 12.5773 
462 2  -0.65 10.0222 -2.386 12.9903 
463 1  1.3 -8.77585 2.09135 12.5274 
464 2  -0.65 -7.47315 1.30885 13.187 
465 2  -0.65 11.4102 2.33345 13.1149 
466 1  1.3 -10.6582 3.5711 14.5932 
467 2  -0.65 -9.3897 3.16215 13.5595 
468 2  -0.65 9.7909 4.315 13.8424 
469 1  1.3 10.7172 3.05875 14.3793 
470 2  -0.65 -8.24865 6.5518 14.6491 
471 1  1.3 -7.0298 7.17055 13.8029 
472 2  -0.65 -6.414 6.1316 12.6895 
473 2  -0.65 6.2202 6.91415 14.7271 
474 1  1.3 7.36065 7.42345 13.7607 
475 2  -0.65 7.85655 6.02615 13.059 
476 1  1.3 9.09885 5.15475 12.5709 
477 2  -0.65 -7.66935 8.44 12.989 
478 2  -0.65 -5.73305 7.6134 14.6705 
479 2  -0.65 -2.0875 9.9964 13.8649 
480 2  -0.65 -0.99645 7.5103 14.0346 
481 1  1.3 -1.4895 8.6983 13.0307 
482 2  -0.65 2.6731 9.9642 14.9862 
483 2  -0.65 6.7295 8.5195 12.7184 
484 2  -0.65 8.5994 8.0957 14.4797 
485 2  -0.65 -4.5382 10.1012 14.8145 
486 1  1.3 -3.29585 11 14.3076 
487 1  1.3 3.8618 10.9796 14.405 
488 2  -0.65 5.0526 10.201 13.7011 
489 2  -0.65 -1.1373 -10.5515 17.0791 
490 2  -0.65 -7.7551 -8.23485 15.0675 
491 2  -0.65 -2.6841 -9.8098 15.0474 
492 2  -0.65 -0.56175 -8.477 15.3802 
493 1  1.3 -1.66415 -9.3443 16.1741 
494 2  -0.65 -2.4322 -8.19615 17.1467 
495 2  -0.65 3.9951 -9.05545 15.4704 
496 2  -0.65 6.433 -9.3429 16.3463 
497 1  1.3 5.25945 -8.2195 15.9404 
498 2  -0.65 -6.4455 -5.14305 16.2806 
499 1  1.3 -5.29905 -5.5519 15.1623 
500 1  1.3 -3.5142 -6.97615 17.2983 
501 2  -0.65 -4.06485 -6.3386 15.9177 
502 2  -0.65 4.85385 -7.41655 17.2884 
503 2  -0.65 7.83785 -5.7529 15.4703 
504 2  -0.65 10.1342 -6.18865 16.3032 
505 2  -0.65 -9.9495 -2.51685 15.4373 
506 2  -0.65 -7.5607 -2.70455 16.4098 
507 1  1.3 -7.0763 -4.02325 17.2771 
508 2  -0.65 9.6058 -3.7572 15.2095 
509 1  1.3 9.09775 -4.9581 16.1793 
510 2  -0.65 -9.2153 -0.7295 17.2465 
511 1  1.3 -8.7054 -1.65705 15.9675 
512 1  1.3 7.16605 -0.209949 15.0861 
513 2  -0.65 11.284 -0.89995 16.6651 
514 2  -0.65 -11.1939 2.17745 15.3683 
515 2  -0.65 -11.7772 0.212049 16.9923 
516 2  -0.65 9.7541 2.1231 15.2845 
517 1  1.3 9.01435 1.7076 16.6491 
518 2  -0.65 7.74365 0.758249 16.2697 
519 2  -0.65 -10.1106 4.77275 15.5852 
520 2  -0.65 -7.57435 4.80035 16.3918 
521 1  1.3 -7.12545 3.5244 17.3259 
522 2  -0.65 8.36755 3.0118 17.3894 
523 1  1.3 -8.776 5.75455 15.8771 
524 2  -0.65 -9.11875 6.8766 17.049 
525 1  1.3 -3.3191 6.8924 17.3828 
526 2  -0.65 4.1349 6.02975 16.3293 
527 1  1.3 5.4185 5.6934 15.3888 
528 2  -0.65 6.66225 5.03625 16.2315 
529 1  1.3 -5.10415 8.75735 15.643 
530 2  -0.65 -6.2328 9.2499 16.746 
531 2  -0.65 -3.8068 8.08135 16.39 
532 1  1.3 1.889 9.19725 16.2437 
533 2  -0.65 0.7568 8.1109 15.8616 
534 2  -0.65 3.00225 8.3531 17.1495 
535 2  -0.65 1.21 10.3531 17.1314 
536 2  -0.65 1.2508 -10.2481 18.3507 
537 1  1.3 0.123951 -11.259 17.783 
538 2  -0.65 -6.5148 -8.38425 19.9985 
539 1  1.3 -5.4002 -8.9658 18.9473 
540 2  -0.65 -6.15565 -9.9396 17.9721 
541 2  -0.65 -4.0959 -9.63025 19.7348 
542 2  -0.65 -4.72155 -7.7361 18.1501 
543 1  1.3 1.9054 -9.29935 19.6065 
544 2  -0.65 3.1762 -8.38785 19.1203 
545 1  1.3 -8.8407 -5.3032 19.4875 
546 2  -0.65 -9.9624 -6.3853 19.2131 
547 2  -0.65 4.15455 -5.9128 19.4165 
548 1  1.3 3.6109 -7.03 18.2976 
549 2  -0.65 -8.34795 -4.576 18.106 
550 1  1.3 7.2592 -3.84875 18.4022 
551 2  -0.65 6.6279 -4.96985 19.4891 
552 2  -0.65 8.6302 -4.4051 17.62 
553 1  1.3 -10.554 -0.192051 18.0172 
554 2  -0.65 -11.2001 -1.26615 19.0303 
555 2  -0.65 7.6486 -2.47245 19.257 
556 1  1.3 10.9536 -0.2931 18.1449 
557 2  -0.65 10.0566 -1.4167 18.9848 
558 2  -0.65 -10.0278 1.15865 18.8289 
559 2  -0.65 -7.5678 1.174 19.9872 
560 1  1.3 -8.8518 2.07395 19.5028 
561 2  -0.65 9.98975 1.01415 17.7685 
562 2  -0.65 -8.37 3.06555 18.2638 
563 2  -0.65 -5.8918 4.09035 18.2359 
564 1  1.3 7.235 4.15065 17.5115 
565 1  1.3 -5.2386 5.2557 19.2063 
566 2  -0.65 -4.60105 6.33035 18.2217 
567 2  -0.65 -2.14165 7.4971 18.2919 
568 2  -0.65 4.7033 7.09805 18.7196 
569 1  1.3 3.6439 6.9042 17.6002 
570 2  -0.65 9.8833 6.7798 18.8765 
571 1  1.3 8.9797 5.6019 19.6054 
572 2  -0.65 7.74985 5.26405 18.6048 
573 2  -0.65 -7.24385 9.55585 19.1567 
574 2  -0.65 -2.96295 9.5176 19.8549 
575 2  -0.65 -0.526949 9.52325 18.8456 
576 1  1.3 -1.72815 8.60535 19.4159 
577 2  -0.65 6.61545 8.94575 19.0708 
578 1  1.3 5.381 8.1559 19.7341 
579 2  -0.65 -0.9876 11.8447 17.5317 
580 2  -0.65 0.8472 11.6239 19.3767 
581 1  1.3 0.0785999 10.8569 18.1621 
582 2  -0.65 -4.8632 -10.8769 22.1038 
583 1  1.3 -3.63305 -10.2949 21.1301 
584 2  -0.65 -2.49595 -11.4631 20.8959 
585 2  -0.65 2.42815 -10.3924 20.678 
586 1  1.3 3.54275 -10.9894 21.722 
587 2  -0.65 -8.2251 -7.8284 21.8495 
588 2  -0.65 -3.0083 -9.16035 22.1646 
589 2  -0.65 0.7372 -8.40725 20.3783 
590 2  -0.65 6.438 -8.89565 22.4029 
591 1  1.3 7.21065 -7.6421 21.7071 
592 2  -0.65 7.8892 -8.04565 20.275 
593 2  -0.65 -7.5459 -5.8717 20.2576 
594 2  -0.65 -5.74575 -6.5391 21.8736 
595 1  1.3 -6.9452 -7.20725 21.0425 
596 2  -0.65 -1.0262 -7.4063 22.0102 
597 2  -0.65 5.9153 -6.63695 21.2641 
598 1  1.3 5.331 -5.39275 20.3939 
599 2  -0.65 10.1567 -5.1917 22.3823 
600 1  1.3 -10.5362 -3.72405 21.643 
601 2  -0.65 -9.48475 -4.08235 20.3871 
602 2  -0.65 9.5983 -2.9569 21.134 
603 1  1.3 10.8011 -4.04345 21.43 
604 2  -0.65 -8.2591 -0.76405 21.7947 
605 1  1.3 -7.0725 -0.164949 20.7931 
606 2  -0.65 8.3405 -0.60285 21.0119 
607 1  1.3 8.9744 -1.86185 20.1556 
608 1  1.3 7.20955 0.574699 21.1546 
609 2  -0.65 7.94885 1.6456 22.1144 
610 2  -0.65 11.4706 2.28415 20.4612 
611 1  1.3 -10.4521 4.1705 21.1777 
612 2  -0.65 -9.4774 2.9664 20.7528 
613 1  1.3 10.9625 3.64485 21.1822 
614 2  -0.65 10.1002 4.4627 20.0669 
615 2  -0.65 10.0801 3.1496 22.4466 
616 2  -0.65 -9.7811 5.1421 22.3633 
617 1  1.3 -6.83985 6.87115 21.4958 
618 2  -0.65 -6.3201 5.93765 20.2506 
619 2  -0.65 1.26385 7.15155 21.93 
620 2  -0.65 5.9665 7.3655 21.0699 
621 1  1.3 7.233 6.83995 21.9797 
622 2  -0.65 8.442 6.26005 21.0347 
623 2  -0.65 -8.023 7.85775 21.1225 
624 2  -0.65 -5.49895 7.72185 21.8731 
625 2  -0.65 -1.2209 7.58285 20.6631 
626 2  -0.65 2.4966 9.57925 22.06 
627 2  -0.65 4.28885 9.23685 20.0752 
628 2  -0.65 -4.63245 10.3048 21.8092 
629 1  1.3 -3.4458 10.7563 20.8143 
630 2  -0.65 -2.0991 11.1863 21.6798 
631 2  -0.65 4.7989 10.9469 22.2722 
632 1  1.3 3.71585 10.2477 21.2052 
633 1  1.3 -0.0158501 -10.7726 24.4179 
634 2  -0.65 5.985 -10.2512 24.694 
635 1  1.3 -1.6652 -8.5187 22.9096 
636 2  -0.65 -0.559349 -9.6709 23.3517 
637 2  -0.65 -2.24435 -7.6633 24.1902 
638 2  -0.65 4.7298 -7.98025 24.3913 
639 2  -0.65 4.03225 -9.94985 22.8331 
640 1  1.3 5.32155 -9.2678 23.557 
641 1  1.3 -5.292 -5.64125 23.2019 
642 2  -0.65 -4.6896 -6.5422 24.4201 
643 1  1.3 3.51345 -6.92135 24.7394 
644 2  -0.65 9.5837 -6.01845 24.9613 
645 1  1.3 8.9888 -5.6433 23.4842 
646 2  -0.65 8.3109 -6.9424 22.6991 
647 2  -0.65 -9.78935 -2.7275 22.7222 
648 1  1.3 -6.91115 -3.43665 24.8599 
649 2  -0.65 -6.43185 -4.7344 23.9325 
650 1  1.3 7.27745 -3.2647 24.5786 
651 2  -0.65 7.8727 -4.4976 23.7048 
652 1  1.3 -8.6245 -1.5724 23.1446 
653 2  -0.65 -9.308 -0.603449 24.2607 
654 2  -0.65 -7.3191 -2.25465 23.8078 
655 2  -0.65 6.80245 -2.0268 23.6448 
656 1  1.3 10.9132 -0.264601 24.5404 
657 2  -0.65 11.4989 -1.6125 23.8272 
658 1  1.3 -10.4765 0.4594 24.6779 
659 2  -0.65 -11.0909 1.38995 23.4742 
660 2  -0.65 9.96325 0.621799 23.4732 
661 1  1.3 9.1264 1.99595 23.1472 
662 2  -0.65 -8.1269 3.7553 24.0947 
663 1  1.3 -6.92015 2.95135 24.7888 
664 1  1.3 5.4966 4.5272 23.4014 
665 2  -0.65 6.13755 3.39135 24.382 
666 2  -0.65 8.55285 2.55545 24.6002 
667 2  -0.65 -9.182 6.23825 24.6301 
668 1  1.3 -8.627 5.2536 23.5018 
669 2  -0.65 -7.2989 5.90105 22.6791 
670 2  -0.65 -2.2234 6.72125 24.0607 
671 1  1.3 3.83745 6.86935 24.8076 
672 2  -0.65 6.6787 5.6067 22.9639 
673 2  -0.65 -6.4643 9.4413 23.6315 
674 1  1.3 -5.13605 9.0755 22.6812 
675 1  1.3 -3.42665 7.5418 24.7659 
676 2  -0.65 -3.94725 8.65955 23.7061 
677 1  1.3 1.96325 8.3007 22.8554 
678 2  -0.65 0.93325 8.74995 24.0553 
679 2  -0.65 3.3021 7.71465 23.5636 
680 2  -0.65 7.7477 8.1105 22.9855 
681 2  -0.65 -0.957251 10.6868 24.0261 
682 1  1.3 -1.4872 11.8565 23.0738 
683 1  1.3 0.2785 10.0079 24.8114 
684 2  -0.65 -1.27325 -11.1146 25.4317 
685 2  -0.65 1.21075 -10.058 25.1927 
686 1  1.3 -5.26915 -8.82495 27.0793 
687 2  -0.65 -6.55525 -9.2636 26.1144 
688 2  -0.65 -3.95265 -8.17625 26.3436 
689 2  -0.65 0.518301 -8.56295 27.3754 
690 2  -0.65 2.3407 -7.6259 25.598 
691 1  1.3 1.7366 -9.02225 26.3254 
692 2  -0.65 3.1179 -9.54175 27.0609 
693 2  -0.65 7.65385 -8.4248 27.3235 
694 2  -0.65 -7.6876 -6.1 27.2423 
695 1  1.3 -8.9337 -5.3138 26.4955 
696 2  -0.65 -9.53795 -6.3024 25.3197 
697 1  1.3 -3.3731 -7.06745 25.2537 
698 2  -0.65 6.4088 -6.0757 26.7095 
699 2  -0.65 -10.1114 -4.7275 27.4749 
700 2  -0.65 -8.1092 -4.01625 25.8284 
701 2  -0.65 5.95955 -3.7416 25.4068 
702 1  1.3 5.2948 -4.9516 26.2899 
703 2  -0.65 8.52285 -2.63855 25.5259 
704 2  -0.65 10.0803 -2.8263 27.4603 
705 2  -0.65 -11.2228 -2.1704 27.2011 
706 2  -0.65 -11.7128 -0.484449 25.1597 
707 1  1.3 9.1831 -1.67905 26.6625 
708 2  -0.65 10.0297 -0.563101 25.8954 
709 1  1.3 -8.77545 1.84485 26.9657 
710 2  -0.65 -9.96285 1.42435 25.9425 
711 2  -0.65 -7.47805 2.37445 26.1781 
712 1  1.3 7.2758 3.1103 25.5116 
713 2  -0.65 7.64595 4.3394 26.4841 
714 2  -0.65 11.6493 2.5402 26.9388 
715 1  1.3 -5.28255 5.30005 25.979 
716 2  -0.65 -6.6012 6.03455 26.6977 
717 2  -0.65 -4.63215 6.44665 25.0487 
718 2  -0.65 2.65355 6.78675 25.9266 
719 2  -0.65 9.4351 6.22105 25.6744 
720 1  1.3 8.86885 5.34375 27.0243 
721 2  -0.65 -7.7107 8.4473 27.3858 
722 2  -0.65 -2.97105 8.3554 26.1142 
723 2  -0.65 -0.43865 9.54855 26.2527 
724 1  1.3 -1.7047 8.9271 27.1033 
725 2  -0.65 4.3453 9.5564 27.192 
726 2  -0.65 6.8629 8.46945 27.4599 
727 1  1.3 5.66725 8.9373 26.4111 
728 2  -0.65 5.1369 7.6742 25.5331 
729 2  -0.65 1.43625 11.1483 25.0227 
730 2  -0.65 6.22955 10.1075 25.4418 
731 2  -0.65 -4.70515 -10.1959 27.7535 
732 1  1.3 -3.57295 -10.9238 28.6999 
733 2  -0.65 -2.2943 -11.4964 27.9155 
734 2  -0.65 2.6028 -11.162 29.1314 
735 1  1.3 3.77625 -10.6737 28.056 
736 2  -0.65 -8.2891 -7.66575 29.3631 
737 2  -0.65 -5.7895 -7.78045 28.1704 
738 2  -0.65 -3.01995 -9.73065 29.5798 
739 1  1.3 -0.0911503 -7.71345 28.6733 
740 2  -0.65 -0.7444 -8.7299 29.7878 
741 2  -0.65 4.9626 -9.871 28.9261 
742 1  1.3 5.46785 -8.61655 29.8111 
743 2  -0.65 -6.4437 -5.77625 29.6427 
744 1  1.3 -7.0519 -6.83445 28.6366 
745 2  -0.65 1.19615 -6.9384 29.2855 
746 1  1.3 7.07975 -6.96865 27.8383 
747 2  -0.65 6.02125 -7.3767 28.9479 
748 1  1.3 8.9267 -5.55145 29.9723 
749 2  -0.65 8.3107 -6.12225 28.5866 
750 1  1.3 -10.65 -3.37715 28.1618 
751 2  -0.65 -9.45985 -2.73075 29.037 
752 2  -0.65 9.52635 -4.04575 29.7388 
753 1  1.3 10.6764 -3.20695 28.9431 
754 2  -0.65 -7.8312 -0.964251 29.9734 
755 1  1.3 -7.1747 -0.27915 28.6622 
756 1  1.3 7.34375 -0.489799 29.0045 
757 2  -0.65 8.0149 -0.966301 27.6053 
758 2  -0.65 11.223 -1.8544 29.6825 
759 2  -0.65 -11.0363 2.0245 29.774 
760 2  -0.65 -8.36865 0.586399 27.9247 
761 2  -0.65 8.43165 0.262201 29.9431 
762 2  -0.65 10.0095 2.00035 28.9668 
763 1  1.3 -10.5274 3.38005 29.0238 
764 2  -0.65 -9.41035 3.03525 27.8439 
765 1  1.3 10.8442 3.15965 28.2143 
766 2  -0.65 10.0801 4.4569 27.6665 
767 2  -0.65 -8.30865 6.2363 28.685 
768 2  -0.65 -5.88225 7.4111 28.7534 
769 1  1.3 -7.1162 7.0392 27.8626 
770 1  1.3 -0.00964928 7.3042 29.2217 
771 1  1.3 7.3251 7.43165 28.6085 
772 2  -0.65 6.0033 6.61635 29.1087 
773 2  -0.65 8.4498 6.3849 28.1533 
774 2  -0.65 -4.17335 9.34365 29.8721 
775 2  -0.65 -1.11715 7.74695 28.1428 
776 2  -0.65 7.8794 8.2724 29.9003 
777 1  1.3 -3.51725 10.5904 29.0096 
778 2  -0.65 -2.27515 10.0182 28.1465 
779 2  -0.65 2.44415 10.387 28.9973 
780 1  1.3 3.77675 10.799 28.0975 
781 1  1.3 -0.09935 -11.1777 32.1282 
782 2  -0.65 -1.4324 -10.3656 31.6962 
783 2  -0.65 0.579351 -11.9322 30.7503 
784 2  -0.65 -2.5141 -8.24215 31.8484 
785 1  1.3 -1.9451 -9.246 30.6685 
786 2  -0.65 4.17095 -8.29415 30.7631 
787 2  -0.65 6.6038 -9.0148 30.8912 
788 1  1.3 -5.08455 -5.1141 30.3334 
789 1  1.3 -3.6606 -7.1515 32.3032 
790 2  -0.65 -4.11045 -6.2807 31.0306 
791 1  1.3 3.56245 -7.15955 31.7741 
792 2  -0.65 7.7597 -5.3464 31.1585 
793 2  -0.65 -7.94205 -3.20825 31.2893 
794 1  1.3 -6.71455 -3.4199 32.3858 
795 1  1.3 7.2557 -4.3059 32.2883 
796 1  1.3 -10.547 -0.430401 32.407 
797 1  1.3 -8.8576 -2.1949 30.4067 
798 2  -0.65 -9.9432 -1.665 31.4515 
799 2  -0.65 -11.8252 0.2866 31.6512 
800 1  1.3 9.12785 1.6958 30.3003 
801 2  -0.65 10.0765 1.33285 31.6255 
802 2  -0.65 -8.2198 3.0505 32.4934 
803 2  -0.65 -9.8354 4.46135 30.0518 
804 1  1.3 -6.991 3.7839 31.7894 
805 2  -0.65 6.57095 4.96095 30.8787 
806 1  1.3 7.20625 3.73245 31.7055 
807 2  -0.65 8.36155 3.053 30.7079 
808 2  -0.65 -9.2709 7.0201 31.0174 