LAMMPS (3 Mar 2020)
# Input file for uniaxial tensile loading of single crystal aluminum
# Mark Tschopp, November 2010

# ------------------------ INITIALIZATION ----------------------------
units 		real
dimension	3
boundary	p	p	p
atom_style	charge
#variable latparam equal 4.05

# ----------------------- ATOM DEFINITION ----------------------------
read_data	CSiNT15.data.Alpha
  orthogonal box = (-50 -50 0) to (50 50 50)
  1 by 1 by 1 MPI processor grid
  reading atoms ...
  13894 atoms
  read_data CPU = 0.144198 secs

# ------------------------ FORCE FIELDS ------------------------------
pair_style      reax/c lmp_control
pair_coeff      * * ffield_SEI.txt C Si
WARNING: VdWaals-parameters for element O indicate inner wall+shielding, but earlier atoms indicate different vdWaals-method. This may cause division-by-zero errors. Keeping vdWaals-setting for earlier atoms. (../reaxc_ffield.cpp:259)

# ------------------------- SETTINGS ---------------------------------
compute peratom all pe/atom
compute csym all centro/atom 12
compute reax all pair reax/c

######################################
# EQUILIBRATION
reset_timestep	0
timestep 0.01
velocity all create 300 12345 mom yes rot no
fix 1 all npt temp 300 300 1 iso 0 0 1 drag 1
fix 3 all qeq/reax 1 0.0 10.0 1e-6 reax/c
# Set thermo output
thermo 100
thermo_style custom step lx ly lz press pxx pyy pzz pe temp

# Run for at least 10 picosecond (assuming 1 fs timestep)
run 10000
Neighbor list info ...
  update every 1 steps, delay 10 steps, check yes
  max neighbors/atom: 2000, page size: 100000
  master list distance cutoff = 12
  ghost atom cutoff = 12
  binsize = 6, bins = 17 17 9
  3 neighbor lists, perpetual/occasional/extra = 2 1 0
  (1) pair reax/c, perpetual
      attributes: half, newton off, ghost
      pair build: half/bin/newtoff/ghost
      stencil: half/ghost/bin/3d/newtoff
      bin: standard
  (2) compute centro/atom, occasional
      attributes: full, newton on
      pair build: full/bin/atomonly
      stencil: full/bin/3d
      bin: standard
  (3) fix qeq/reax, perpetual, copy from (1)
      attributes: half, newton off, ghost
      pair build: copy
      stencil: none
      bin: none
Per MPI rank memory allocation (min/avg/max) = 1162 | 1162 | 1162 Mbytes
Step Lx Ly Lz Press Pxx Pyy Pzz PotEng Temp 
       0          100          100           50    747894.66    748976.12    747532.68    747175.19    1971124.8          300 
     100    136.54645    136.54645    68.273223   -381.99654   -447.65362    777.50671   -1475.8427   -1323322.1    723.43963 
     200    136.22089    136.22089    68.110447   -129.09491    18.463887    751.33853   -1157.0871   -1358546.3     1267.845 
     300    136.06142    136.06142    68.030712   -27.945306    1438.5684   -429.04054   -1093.3638   -1395912.8    1572.4947 
     400    135.93586    135.93586    67.967928   -3.0447964    932.69979    56.311247   -998.14542   -1433718.5    1707.2415 
     500    135.61077    135.61077    67.805386    32859.978    34071.261    33267.644    31241.029   -1469239.6    1746.0901 
     600    135.51172    135.51172    67.755861     41104.17    41217.143    40913.576    41181.792   -1502283.9    1709.3368 
     700    135.39373    135.39373    67.696865    56351.472    56343.392    55799.689    56911.334   -1532031.3    1652.2761 
     800    135.38665    135.38665    67.693327    54037.834    55053.574    53823.125    53236.803   -1561225.1    1589.5433 
     900    135.30742    135.30742     67.65371    68632.583    67414.997    68786.386    69696.365   -1586273.5    1530.1837 
    1000    135.30729    135.30729    67.653647    69720.921    69928.314    69422.026    69812.421   -1610805.3    1467.6964 
    1100    135.27316    135.27316    67.636582    81016.444     80092.93    81468.881     81487.52   -1632641.4    1412.9116 
    1200    135.29786    135.29786     67.64893    78897.187    78020.059    78995.053    79676.448   -1654148.9    1354.2321 
    1300    136.82506    136.82506    68.412528      -100667   -98640.424   -100329.94   -103030.65     -1653722    1271.6885 
    1400    135.87576    135.87576     67.93788   -15919.012   -16161.436   -15264.377   -16331.223   -1698689.4    1242.5797 
    1500    135.30223    135.30223    67.651116     118387.7    116296.32     119124.6    119742.18   -1706345.3    1210.7396 
    1600     136.4529     136.4529    68.226449   -77132.313   -75373.601   -77296.182   -78727.154   -1721088.7    1144.7678 
    1700    137.78047    137.78047    68.890234   -125127.65   -123131.99   -124402.42   -127848.53   -1676696.8    1075.1429 
    1800    135.58324    135.58324    67.791619    67740.464    65015.359     67696.75    70509.282   -1757800.4    1065.7817 
    1900    135.55916    135.55916    67.779578    77340.063    75700.893    77062.306    79256.991   -1769877.9    1038.0628 
    2000    135.40729    135.40729    67.703643    132642.81    128687.17    132043.16    137198.09   -1775291.2    1012.0047 
    2100     136.3577     136.3577    68.178851   -65375.744   -63694.807   -65668.784   -66763.641   -1790733.7    973.83804 
    2200    135.52191    135.52191    67.760955     109238.9    105620.38    108991.35    113104.98   -1802044.4    951.66065 
    2300    136.85071    136.85071    68.425355   -96088.988   -94701.271   -95470.338   -98095.353     -1795655    905.92855 
    2400    135.45174    135.45174    67.725871    150947.53    148031.39    150418.48    154392.72   -1816990.3    896.69977 
    2500    136.19417    136.19417    68.097084   -45807.343   -44434.034   -46203.704   -46784.291   -1835333.9    859.64634 
    2600    135.38646    135.38646    67.693229    190173.34    184505.75    190754.83    195259.43   -1827947.6    846.28804 
    2700    135.46558    135.46558    67.732792    163657.85     160029.7    163320.96    167622.88   -1841130.2    825.69551 
    2800    136.32026    136.32026    68.160129    -55298.47   -53441.241   -55890.558   -56563.609   -1857343.7    790.83458 
    2900    135.63114    135.63114    67.815568    106219.72    103372.22    105687.37    109599.57     -1863078    775.80064 
    3000      135.583      135.583      67.7915    132527.91    129289.06    131793.34    136501.34   -1867253.8    761.50367 
    3100    135.51266    135.51266     67.75633     175987.1    171551.62    176859.16     179550.5   -1868453.5    743.94148 
    3200    135.66532    135.66532    67.832658    112770.57    110516.28    111708.42    116087.01   -1882797.1    725.41085 
    3300    138.15433    138.15433    69.077165   -124467.82   -122057.07   -124100.13   -127246.26   -1815055.8     681.4039 
    3400    138.83895    138.83895    69.419473   -144798.82   -142520.97   -144015.61    -147859.9   -1782286.1    658.98608 
    3500    135.47025    135.47025    67.735126    203437.62    198897.67    204185.85    207229.33     -1885658    675.70411 
    3600    135.57095    135.57095    67.785474    154743.17    151640.09    154188.37    158401.05   -1897718.1    660.81282 
    3700    135.55228    135.55228    67.776138    171033.09    167976.45    169327.27    175795.56   -1900893.4    646.78589 
    3800     136.2107     136.2107    68.105348   -30171.292    -29529.38   -29901.226   -31083.272   -1918093.8    627.35918 
    3900    136.56149    136.56149    68.280747   -70652.369   -69009.119   -70738.245   -72209.742   -1915483.9      616.257 
    4000    138.87976    138.87976     69.43988   -141913.94   -139606.24   -141003.74   -145131.83   -1812265.5    584.63519 
    4100    138.60864    138.60864    69.304319   -132255.25   -129568.61    -131640.1   -135557.02   -1832985.2    578.12263 
    4200    135.71741    135.71741    67.858707    109419.91    108205.86    108185.25    111868.63     -1928943     593.1525 
    4300    139.13602    139.13602    69.568012   -145181.34   -142602.65   -144121.25   -148820.12   -1811017.2    554.50827 
    4400    135.52947    135.52947    67.764737    217673.61    214671.81    216417.73     221931.3   -1922680.2    576.05736 
    4500    135.51394    135.51394    67.756968    239158.75    236619.14    235906.28    244950.83   -1923328.8    568.11727 
    4600    136.36259    136.36259    68.181297   -37392.394   -36534.321   -37352.072   -38290.789   -1947620.6    551.88369 
    4700    135.69025    135.69025    67.845124    150776.73    148962.63    149026.44    154341.11   -1942037.4    549.19327 
    4800    136.78157    136.78157    68.390786   -80094.728   -78850.403   -79860.861    -81572.92   -1943975.5    530.88461 
    4900    138.51988    138.51988    69.259941   -122226.18   -119720.82   -121760.15   -125197.56   -1871182.8    512.08731 
    5000    135.84948    135.84948    67.924738    84163.657    84294.615    82971.076    85225.278   -1957272.1    526.36218 
    5100    135.62273    135.62273    67.811365    213513.97    212215.24    211311.14    217015.52   -1946584.8    525.19854 
    5200      136.248      136.248    68.123999   -11106.292   -10385.185   -12324.129   -10609.563     -1967819    516.57567 
    5300    137.48561    137.48561    68.742803   -105350.71    -103058.8   -105292.59   -107700.76   -1932820.4    505.29529 
    5400    135.66455    135.66455    67.832277    207898.34    204366.74    207821.13    211507.17   -1956026.4    510.03985 
    5500    138.15322    138.15322    69.076609   -109433.01   -106809.85   -108960.62   -112528.55   -1909217.3    484.87457 
    5600    137.22987    137.22987    68.614937   -99476.001   -97023.474   -99374.088   -102030.44   -1953023.2     486.7759 
    5700    138.82582    138.82582    69.412908   -128711.63   -126612.89   -127918.92   -131603.09   -1881736.8    472.09557 
    5800    136.88878    136.88878    68.444389   -78756.649   -77031.286   -79170.126   -80068.534   -1971079.4    478.97944 
    5900    135.78675    135.78675    67.893373    160870.93    158451.83    159228.09    164932.85   -1974474.1    483.62557 
    6000    136.36181    136.36181    68.180906   -21406.958   -20146.992   -22559.298   -21514.584     -1987375    477.85366 
    6100    138.56571    138.56571    69.282855    -116847.6   -114674.42   -116552.55   -119315.82   -1906735.8    455.66364 
    6200    136.95571    136.95571    68.477857   -82009.724   -80395.868   -81745.736   -83887.569   -1978822.4    466.32752 
    6300    136.75351    136.75351    68.376753   -63478.653   -62046.389   -63516.073   -64873.496     -1987276    465.44476 
    6400    139.21515    139.21515    69.607577   -139134.98   -137203.49   -138289.18   -141912.25   -1880366.4    445.36148 
    6500    138.23661    138.23661    69.118303   -104528.86   -102820.44   -103957.05   -106809.09   -1933622.5    447.12209 
    6600     136.7503     136.7503    68.375149   -60287.461   -59072.048   -60227.668   -61562.668   -1994536.9    453.70169 
    6700    137.00955    137.00955    68.504777   -83011.452    -80930.41   -82702.484   -85401.463   -1988973.6     450.4303 
    6800     135.9231     135.9231    67.961549    119900.43    118345.47    117536.23    123819.58   -1997107.8    452.28599 
    6900    135.76598    135.76598     67.88299    232742.33    228887.64    231440.55     237898.8   -1987403.5    452.19214 
    7000    138.77289    138.77289    69.386443   -121667.48   -119640.02   -120899.67   -124462.74   -1919111.6    430.81705 
    7100    138.94715    138.94715    69.473577   -126507.76   -124472.08   -126033.08   -129018.12   -1912233.5    423.98005 
    7200    135.77121    135.77121    67.885607    241192.86    238798.49    238914.03    245866.06   -1991533.2    442.09016 
    7300     138.8755     138.8755    69.437749   -122775.13   -121011.29   -122149.56   -125164.53   -1920344.1    418.57177 
    7400    135.84597    135.84597    67.922987    198606.58    195328.68    196812.24    203678.82   -2000692.5    435.78151 
    7500    135.81749    135.81749    67.908743    213837.82    210838.35    211344.86    219330.25   -1999771.1    435.01469 
    7600    135.82532    135.82532     67.91266    214633.06    212146.87    212982.63    218769.68   -2001352.2    431.03777 
    7700    139.27219    139.27219    69.636097   -133924.92   -132104.97   -133107.16   -136562.63   -1907575.2    408.84481 
    7800    139.18324    139.18324    69.591622   -131033.52   -129201.11   -130102.98   -133796.47   -1914770.2    407.60509 
    7900    138.99076    138.99076     69.49538    -124630.4   -123000.21   -123815.21   -127075.78     -1927188    405.86818 
    8000     139.2935     139.2935    69.646748    -133805.3    -131901.1   -132996.52   -136518.29   -1912347.3    401.19901 
    8100    135.95819    135.95819    67.979094     146194.3    143876.53    143963.17     150743.2     -2017292    418.72286 
    8200    135.88454    135.88454    67.942272    196938.51    194502.96    194142.17    202170.41   -2013678.4    422.18503 
    8300    135.89472    135.89472    67.947362    194496.26    192388.08    192120.93    198979.76   -2015292.5    418.24695 
    8400    137.12707    137.12707    68.563533   -82376.998   -81547.169   -81216.272   -84367.554   -2017557.6    410.84672 
    8500    138.35226    138.35226    69.176131    -103035.7   -101660.35   -102128.96   -105317.78     -1968922    400.47278 
    8600    137.74352    137.74352    68.871758   -101777.09   -100549.04   -100803.51   -103978.71   -1996526.7    403.27427 
    8700    136.92138    136.92138     68.46069   -61134.262   -60762.163   -59868.238   -62772.385     -2028646    405.17338 
    8800    137.18392    137.18392    68.591958   -84111.667   -82898.514    -83070.14   -86366.347   -2022456.2    403.36036 
    8900    137.02429    137.02429    68.512146   -69250.247   -68413.396   -68313.293   -71024.054   -2028914.9    398.82104 
    9000     139.0588     139.0588    69.529401   -123617.11    -122030.2   -122674.15   -126146.99   -1944315.5    385.47029 
    9100    139.30831    139.30831    69.654156   -131448.78   -129632.25   -130580.16   -134133.95   -1932705.8    381.46597 
    9200    136.18846    136.18846    68.094229    67319.203    67332.391     67388.04    67237.176   -2039386.2    397.96429 
    9300    136.92638    136.92638    68.463189   -57664.827    -56352.01   -57531.587   -59110.884   -2037044.3     389.9079 
    9400    139.43101    139.43101    69.715504   -133361.62    -131369.7   -132430.84   -136284.33   -1930650.3    375.43313 
    9500    137.12526    137.12526    68.562632   -74680.987   -73373.562    -74468.07    -76201.33   -2034173.7    388.27985 
    9600    135.92032    135.92032    67.960162    235745.92    232736.94    234587.59    239913.22   -2027727.8    394.70555 
    9700    139.09191    139.09191    69.545956   -122650.89    -120953.4   -121839.11   -125160.15   -1953787.9    377.22294 
    9800    138.36858    138.36858    69.184289   -98777.395   -97631.677   -97930.883   -100769.63   -1988745.2    380.79181 
    9900    136.01307    136.01307    68.006534    176685.67    175515.01    175133.92    179408.07   -2038388.6    393.39135 
   10000    138.64531    138.64531    69.322655   -104191.91    -102872.6   -103431.05   -106272.07     -1979980    380.29821 
Loop time of 26373.8 on 1 procs for 10000 steps with 13894 atoms

Performance: 0.000 ns/day, 73260.606 hours/ns, 0.379 timesteps/s
99.7% CPU use with 1 MPI tasks x no OpenMP threads

MPI task timing breakdown:
Section |  min time  |  avg time  |  max time  |%varavg| %total
---------------------------------------------------------------
Pair    | 14393      | 14393      | 14393      |   0.0 | 54.57
Neigh   | 132.51     | 132.51     | 132.51     |   0.0 |  0.50
Comm    | 0.56078    | 0.56078    | 0.56078    |   0.0 |  0.00
Output  | 0.022282   | 0.022282   | 0.022282   |   0.0 |  0.00
Modify  | 11847      | 11847      | 11847      |   0.0 | 44.92
Other   |            | 0.4137     |            |       |  0.00

Nlocal:    13894 ave 13894 max 13894 min
Histogram: 1 0 0 0 0 0 0 0 0 0
Nghost:    3597 ave 3597 max 3597 min
Histogram: 1 0 0 0 0 0 0 0 0 0
Neighs:    5.10378e+06 ave 5.10378e+06 max 5.10378e+06 min
Histogram: 1 0 0 0 0 0 0 0 0 0
FullNghs:  0 ave 0 max 0 min
Histogram: 1 0 0 0 0 0 0 0 0 0

Total # of neighbors = 5103783
Ave neighs/atom = 367.337
Neighbor list builds = 856
Dangerous builds = 622
unfix 1

# Store final cell length for strain calculations
variable tmp equal "lz"
variable L0 equal ${tmp}
variable L0 equal 69.322654554564
print "Initial Length, L0: ${L0}"
Initial Length, L0: 69.322654554564

######################################
# DEFORMATION
reset_timestep	0

fix		1 all npt temp 300 300 1 x 0 0 1 y 0 0 1 drag 1
variable srate equal 1.0e10
variable srate1 equal "v_srate / 1.0e12"
fix		2 all deform 1 z erate ${srate1} remap x units box
fix		2 all deform 1 z erate 0.01 remap x units box

# Output strain and stress info to file
# for units metal, pressure is in [bars] = 100 [kPa] = 1/10000 [GPa]
# p2, p3, p4 are in GPa
variable strain equal "(lz - v_L0)/v_L0"
variable p1 equal "v_strain"
variable p2 equal "-pxx/10000"
variable p3 equal "-pyy/10000"
variable p4 equal "-pzz/10000"
fix def1 all print 100 "${p1} ${p2} ${p3} ${p4}" file SiNT_100.def1.txt screen no

# Use cfg for AtomEye
dump 		1 all custom 100 dump.tensile id type x y z c_csym c_peratom fx fy fz


# Display thermo
thermo 	100
thermo_style	custom step v_strain temp v_p2 v_p3 v_p4 ke pe press

run		10000
Per MPI rank memory allocation (min/avg/max) = 1120 | 1120 | 1120 Mbytes
Step v_strain Temp v_p2 v_p3 v_p4 KinEng PotEng Press 
       0 4.0999165e-16    380.29821     10.28726    10.343105    10.627207     15749.06     -1979980   -104191.91 
     100         0.01    658.17881   -0.8727684  -0.92379872      8.73946     27256.76   -2031299.3   -23142.976 
     200         0.02    794.50192  -0.55015911  -0.57354405     6.538156    32902.227     -2029660   -18048.176 
     300         0.03    784.82574   -3.0078309   -3.0080966    3.7249416    32501.513   -2025675.4    7636.6198 
     400         0.04    762.28206     1.588781    1.5836744    6.3235114    31567.925   -2022863.2   -31653.223 
     500         0.05    754.17697    6.4941278    6.5697012    9.8040087    31232.274   -2014327.5   -76226.125 
     600         0.06    767.60172   -7.0485808   -7.1664738    2.1022845    31788.225   -2013805.6      40375.9 
     700         0.07    764.57883    11.065336    11.161996    13.444768     31663.04   -1968882.5      -118907 
     800         0.08    793.83342   -7.8883237   -8.0100808      1.90841    32874.543     -2005568    46633.315 
     900         0.09    798.72059     1.121654    1.0680156    7.1820794    33076.932   -2005685.1   -31239.163 
    1000          0.1    801.14002    10.139171    10.217969    13.106672    33177.126   -1974086.1   -111546.04 
    1100         0.11    815.74874     9.599917    9.6976277    12.881729    33782.108   -1975272.3   -107264.25 
    1200         0.12    836.47365    4.5544649     4.627554    9.7626639    34640.376   -1993341.1   -63148.943 
    1300         0.13    852.56308   -6.5831035   -6.6231509    3.7524994    35306.678   -1989939.5    31512.516 
    1400         0.14    861.54557    3.1468998    3.2264044    8.9462868    35678.665   -1988559.1   -51065.303 
    1500         0.15    869.19029  0.035144833  0.049742278    7.2634571    35995.251   -1986812.9   -24494.481 
    1600         0.16    878.11862   0.30205117   0.30608296    7.4982205    36364.994   -1984266.2   -27021.182 
    1700         0.17    895.43194   -11.455638   -11.502678     1.921537     37081.98   -1974659.7    70122.597 
    1800         0.18    902.68481    0.4724846   0.48728491    7.6338004    37382.339   -1979787.4   -28645.233 
    1900         0.19    911.64489     -10.5738   -10.632362    2.1839332    37753.397   -1971123.5    63407.429 
    2000          0.2    907.41921    9.0132432    9.0647423    12.797027    37578.402   -1952358.7   -102916.71 
    2100         0.21    911.28071    8.2602916    8.2703917    12.288591    37738.316   -1958568.4   -96064.247 
    2200         0.22    922.89522   -2.7460204   -2.7359924    5.7932908      38219.3   -1972813.6   -1037.5931 
    2300         0.23    927.70505   -2.4538207   -2.4628758    5.9833168    38418.487   -1971974.1    -3555.401 
    2400         0.24    926.06741     7.149829    7.2593829    11.506739    38350.668     -1960598   -86386.505 
    2500         0.25    936.62958   0.82885581   0.88872042    7.5866677    38788.073   -1971170.2   -31014.146 
    2600         0.26    938.28033    7.8866079    7.9923477    11.972833    38856.435   -1955507.8   -92839.294 
    2700         0.27    950.38854    5.1894314    5.3007546    10.162524    39357.865   -1967112.2   -68842.367 
    2800         0.28    953.88515    4.1220037    4.2153913    9.4059955    39502.668   -1969411.5   -59144.635 
    2900         0.29    953.34351    4.1996891    4.2708085    9.3023233    39480.237     -1969781   -59242.736 
    3000          0.3    960.51888   -1.7819653   -1.7652753    5.7238922    39777.386   -1973381.5   -7255.5054 
    3100         0.31    961.41721    6.6128354     6.689701    10.855493    39814.588   -1965515.4   -80526.764 
    3200         0.32    975.10639   -5.6595967   -5.7090512    3.7066501     40381.49   -1973932.2    25539.993 
    3300         0.33    975.89277   -5.0664933   -5.0633674    3.9721671    40414.056   -1975901.3    20525.645 
    3400         0.34    973.89682   -4.6997413   -4.7005618    4.0208631    40331.399   -1977866.8    17931.467 
    3500         0.35    972.67365   -4.5480416   -4.5328113    4.0031144    40280.744     -1979995    16925.795 
    3600         0.36    970.51154   -4.3120485   -4.3180884    4.1496053    40191.206   -1982188.1    14935.105 
    3700         0.37    975.47841   -4.4996777   -4.5120535    4.0086899    40396.896     -1984476    16676.804 
    3800         0.38    978.42192   -4.3673314   -4.3472983    4.0616792    40518.794   -1987069.8    15509.835 
    3900         0.39    974.07271   -4.0129625   -4.0029262    4.0310414    40338.683     -1989736    13282.824 
    4000          0.4    969.98987   -3.7208482   -3.7277041    4.1620901    40169.603   -1992436.4    10954.874 
    4100         0.41    967.32834   -3.6767868   -3.6935678    4.0450023    40059.382   -1995175.9    11084.508 
    4200         0.42    963.74584   -3.7160461    -3.738964    3.9299898    39911.023   -1997905.8    11750.068 
    4300         0.43    959.50449   -3.3015031   -3.3232772    4.1497196    39735.378   -2000872.1    8250.2021 
    4400         0.44     956.6596   -3.2271301   -3.2414994    4.2510762    39617.564   -2003709.1    7391.8447 
    4500         0.45     953.3591   -3.2554641   -3.2979891    4.1329146    39480.883   -2006465.6     8068.462 
    4600         0.46    951.90925   -3.2807721   -3.3095858    4.0457922    39420.841   -2009353.3    8481.8859 
    4700         0.47    944.55242   -2.6705793   -2.6693109    4.2645184    39116.177   -2012494.9     3584.573 
    4800         0.48    939.17321   -2.9529762   -2.9874096    4.1069773    38893.411   -2015143.8    6111.3618 
    4900         0.49    932.44662   -2.7110287   -2.7438529    4.2002185    38614.847   -2017968.3    4182.2102 
    5000          0.5     928.5092   -2.4773932   -2.4993697     4.321585    38451.789   -2020855.7    2183.9267 
    5100         0.51    927.69375   -2.4055529   -2.4070208    4.3117234    38418.019   -2023798.3    1669.5009 
    5200         0.52    924.81632   -2.1539174   -2.1462359     4.325997    38298.858   -2026876.3   -86.145396 
    5300         0.53    918.53636   -2.1727931   -2.1663728    4.3092633     38038.79   -2029699.2    99.675495 
    5400         0.54    918.30573   -2.1368417    -2.121799    4.3804303    38029.239   -2032719.8   -405.96522 
    5500         0.55    917.58325   -1.7153486   -1.7081239    4.5709487    37999.319   -2035935.5   -3824.9206 
    5600         0.56    915.82047   -1.2414413   -1.2295299    4.7510547    37926.318   -2039174.4   -7600.2782 
    5700         0.57    913.97083   -1.6948253   -1.6896495    4.5160311     37849.72   -2042119.9   -3771.8544 
    5800         0.58    910.21831   -1.4352893   -1.4387538    4.6183056    37694.319   -2045247.6   -5814.2084 
    5900         0.59    903.42187  -0.60259142  -0.60648632    5.0352503    37412.862   -2048395.7   -12753.909 
    6000          0.6     898.8941  -0.98240414  -0.97909201    4.7230178    37225.357   -2051301.9    -9205.072 
    6100         0.61    892.54631    1.1419486    1.1532497    5.9896786     36962.48   -2054210.3   -27616.256 
    6200         0.62    891.07547   0.94127887   0.95176231    5.9098747    36901.568   -2057344.4    -26009.72 
    6300         0.63    887.73315   0.58584851   0.58852612    5.7050845    36763.155   -2060335.6    -22931.53 
    6400         0.64    885.73659  -0.38581853  -0.38268668    5.0238886    36680.473   -2063338.9   -14184.611 
    6500         0.65    882.36455 -0.011228895 -0.016334335     5.235134    36540.828   -2066319.8   -17358.569 
    6600         0.66    875.48345  0.085815314  0.085957508    5.3093235    36255.866   -2069033.2   -18270.321 
    6700         0.67    871.62661  0.036343756  0.034356255     5.303917    36096.144   -2071751.9    -17915.39 
    6800         0.68    867.42252 -0.048152693 -0.052972252    5.1744233    35922.043   -2074420.1   -16910.995 
    6900         0.69    859.51703  0.040004725  0.037947826    5.2245054    35594.658   -2076916.9    -17674.86 
    7000          0.7    853.50173 -0.025741824 -0.024117716    5.1402174     35345.55   -2079373.6    -16967.86 
    7100         0.71    849.99715 -0.0097136327 -0.0092909122    5.1308097    35200.417   -2081899.9   -17039.351 
    7200         0.72    843.80736 -0.0017617877 -0.00088852975    5.1746927    34944.083   -2084243.6   -17240.141 
    7300         0.73     841.1167 -0.0034807627 -0.0022795188    5.1710288    34832.656   -2086571.9   -17217.562 
    7400         0.74    835.68959 -0.0017840483 -0.0011273948     5.103038    34607.906   -2088808.8   -17000.422 
    7500         0.75    832.09286 -0.0001061641 -0.0009657693    5.1037987    34458.957   -2091055.4   -17009.089 
    7600         0.76    830.64909   0.01325433 0.0083555319    5.1455324    34399.168   -2093343.2   -17223.808 
    7700         0.77    826.10357 0.0085320336 0.0091360591    5.1180002    34210.927   -2095471.8   -17118.894 
    7800         0.78    822.61556 -0.0012715572 -0.0040974025    5.1002662     34066.48   -2097597.3   -16982.991 
    7900         0.79    819.13118 0.0028716942 0.0002470224     5.061422    33922.183   -2099715.9   -16881.802 
    8000          0.8    813.56667 0.0029250937 0.00084762117    5.0716729    33691.743   -2101663.4   -16918.152 
    8100         0.81    806.60236   0.00211546 0.0027205548    5.0655238    33403.335   -2103442.7   -16901.199 
    8200         0.82    801.97459 -0.0030762776 -0.0033834212    5.0732509    33211.688   -2105227.6   -16889.304 
    8300         0.83    797.12059 0.0090110166 0.0085282991    5.0906823    33010.672   -2106920.3   -17027.405 
    8400         0.84    794.26474 0.0092467582  0.010044809    5.1079003    32892.404   -2108584.6    -17090.64 
    8500         0.85    791.01076 -0.0063224617 -0.0060355281    5.0418183    32757.649   -2110243.5   -16764.868 
    8600         0.86    786.93227 -0.0018408192 -0.0034846563    5.0262956    32588.749   -2111867.8   -16736.567 
    8700         0.87    783.82646  0.009546299  0.009238088    5.0816219     32460.13   -2113426.3   -17001.354 
    8800         0.88    780.92627 0.0094961197 0.0015657956     5.106663    32340.026   -2114930.3   -17059.083 
    8900         0.89    778.09203 0.0096410061 0.0077433799    5.1038509    32222.654   -2116388.9   -17070.784 
    9000          0.9    776.08744 -0.0026365825 -0.00058215432    5.0813944    32139.639   -2117848.6   -16927.252 
    9100         0.91    770.03161 -0.0030407948 -0.001645986    5.1041812    31888.852   -2119107.9   -16998.315 
    9200         0.92    766.26048 -0.0033320977 -0.0028865575    5.1029549    31732.681   -2120350.4   -16989.121 
    9300         0.93    762.35189 -0.0082354213 -0.0081649611    5.0765782    31570.817   -2121525.4   -16867.259 
    9400         0.94    755.85987 -0.0023546652 -0.003099183     5.050843    31301.967   -2122563.7   -16817.964 
    9500         0.95    751.40106 0.0036449443 0.0050718389    5.1042326    31117.317     -2123572   -17043.165 
    9600         0.96    752.25918 -0.0033202696 -0.0058178817    5.1233117    31152.853   -2124716.1   -17047.245 
    9700         0.97    753.20108 0.0061451609 0.0068371061    5.1100555     31191.86   -2125927.6   -1707