LAMMPS (15 Apr 2020)
OMP_NUM_THREADS environment is not set. Defaulting to 1 thread. (../comm.cpp:94)
  using 1 OpenMP thread(s) per MPI task
# Input file for uniaxial tensile loading

# ------------------------ INITIALIZATION ----------------------------
units 		real
dimension	3
boundary	p	p	p
atom_style	charge
#variable latparam equal 4.05

# ----------------------- ATOM DEFINITION ----------------------------
read_data	SiNW_SiO2_5A.data
  orthogonal box = (0 0 0) to (50 50 50)
  1 by 1 by 1 MPI processor grid
  reading atoms ...
  1321 atoms
  read_data CPU = 0.060837 secs
# ------------------------ FORCE FIELDS ------------------------------
pair_style      reax/c lmp_control
pair_coeff      * * ffield_Li_Si_Al_O Si O
WARNING: Changed valency_val to valency_boc for X (../reaxc_ffield.cpp:315)

# ------------------------- SETTINGS ---------------------------------
compute peratom all pe/atom
compute csym all centro/atom 12
compute reax all pair reax/c

######################################
# EQUILIBRATION
reset_timestep	0
timestep 0.01
velocity all create 300 12345 mom yes rot no
fix 1 all npt temp 300 300 1 iso 0 0 1 drag 1
fix 3 all qeq/reax 1 0.0 10.0 1e-6 reax/c
# Set thermo output
thermo 200
thermo_style custom step lx ly lz press pxx pyy pzz pe temp

# Run for at least 10 picosecond (assuming 1 fs timestep)
run 10000
Neighbor list info ...
  update every 1 steps, delay 10 steps, check yes
  max neighbors/atom: 2000, page size: 100000
  master list distance cutoff = 12
  ghost atom cutoff = 12
  binsize = 6, bins = 9 9 9
  3 neighbor lists, perpetual/occasional/extra = 2 1 0
  (1) pair reax/c, perpetual
      attributes: half, newton off, ghost
      pair build: half/bin/newtoff/ghost
      stencil: half/ghost/bin/3d/newtoff
      bin: standard
  (2) compute centro/atom, occasional
      attributes: full, newton on
      pair build: full/bin/atomonly
      stencil: full/bin/3d
      bin: standard
  (3) fix qeq/reax, perpetual, copy from (1)
      attributes: half, newton off, ghost
      pair build: copy
      stencil: none
      bin: none
Per MPI rank memory allocation (min/avg/max) = 45.32 | 45.32 | 45.32 Mbytes
Step Lx Ly Lz Press Pxx Pyy Pzz PotEng Temp 
       0           50           50           50    9095.0243    7043.0931    7970.0512    12271.929   -152943.35          300 
     200     50.98784     50.98784     50.98784    66.743451   -846.20949   -2492.1087    3538.5485      -155541     685.4015 
     400    50.768673    50.768673    50.768673   -20.246436   -632.59677   -1158.6782    1730.5357   -158726.32    861.04544 
     600    50.590701    50.590701    50.590701    233.12016   -139.48292    405.46134    433.38206   -160856.97    756.35866 
     800     50.47025     50.47025     50.47025    -54.32238    -749.4601    232.87312    353.61983   -162353.82    656.01804 
    1000    50.375731    50.375731    50.375731    23.188304   -438.21576    685.43445   -177.65377   -163424.63    572.95764 
    1200    50.311038    50.311038    50.311038   0.27346807   -378.05461    895.72828   -516.85327   -164224.95    511.01818 
    1400    50.282855    50.282855    50.282855     1.088184   -1043.5249    846.69629    200.09316   -164864.73    467.65439 
    1600    50.255735    50.255735    50.255735    12.908078   -760.68926    342.34909     457.0644   -165349.75    431.41131 
    1800    50.269454    50.269454    50.269454  -0.89468998   -922.89769    597.42079    322.79283   -165740.83    404.73229 
    2000    50.317896    50.317896    50.317896   -7.2074906   -575.25846     607.3944   -53.758415   -166100.76    390.82607 
    2200    50.375145    50.375145    50.375145   -1.0882253    26.591447    599.06448    -628.9206   -166400.96     374.4384 
    2400    50.406944    50.406944    50.406944   -3.6080345    168.72409      123.229   -302.77719   -166707.57    372.18627 
    2600    50.397867    50.397867    50.397867   -4.6268335   -87.840556    202.52912   -128.56906   -167017.46    371.21744 
    2800    50.370825    50.370825    50.370825    11.644189    265.10212    384.29749   -614.46705   -167333.56    371.32545 
    3000    50.351495    50.351495    50.351495    8.2289188   -170.43694    469.67249    -274.5488   -167582.77    359.11853 
    3200    50.328706    50.328706    50.328706    6.4556701    333.28279    424.35577   -738.27156    -167815.1     353.2778 
    3400    50.332883    50.332883    50.332883   -5.4199913    526.00553    463.54821   -1005.8137   -168028.86    346.65049 
    3600     50.32532     50.32532     50.32532   -7.9833516   -48.684952    600.23515   -575.50026   -168259.47    348.39276 
    3800    50.325389    50.325389    50.325389   -6.6834485   -19.343654    539.02039   -539.72709   -168448.16    340.83789 
    4000    50.318879    50.318879    50.318879    1.8071324    454.00678    352.38599   -800.97138   -168613.84    334.81187 
    4200    50.303931    50.303931    50.303931   -4.6692781    676.16775    53.609655   -743.78524   -168770.15    331.06365 
    4400    50.279061    50.279061    50.279061   -1.3487199   -198.39055    51.067019    143.27737   -168948.44    333.44432 
    4600    50.265643    50.265643    50.265643   -4.8800463   -81.258128    53.846608    12.771382   -169114.68    332.44915 
    4800    50.248417    50.248417    50.248417   -2.1029323    153.12533    177.27505   -336.70918   -169289.78     333.4936 
    5000     50.22071     50.22071     50.22071   -4.8406937    402.16666    76.460025   -493.14877   -169456.71    331.89717 
    5200    50.206535    50.206535    50.206535   0.96384694   -259.51365    315.31751   -52.912312   -169586.38     325.5661 
    5400    50.195238    50.195238    50.195238   -10.566002    76.054869    269.04499   -376.79787   -169716.35    323.54265 
    5600    50.166237    50.166237    50.166237     2.474475    427.33022    97.983993   -517.89078   -169846.63    322.49085 
    5800     50.15559     50.15559     50.15559    -4.248606   -206.50726    429.79859   -236.03715   -169948.76    317.59435 
    6000    50.161403    50.161403    50.161403    1.2712919     134.5602   -12.910988   -117.83534   -170056.25    316.74887 
    6200    50.154052    50.154052    50.154052    11.226638    539.43606    -751.1621    245.40595   -170162.45     316.5392 
    6400    50.147962    50.147962    50.147962    2.8253213    426.96733   -235.51588   -182.97548   -170295.96    321.29758 
    6600     50.12984     50.12984     50.12984   -1.6395266    962.71271   -461.18494   -506.44635   -170402.79    317.75646 
    6800    50.100403    50.100403    50.100403    2.3494964    399.32453   -327.24488   -65.031162   -170514.96    316.93824 
    7000    50.059927    50.059927    50.059927    -5.696003     485.1639   -662.03186    159.77995   -170602.65    313.78137 
    7200    50.025419    50.025419    50.025419   -17.015115    772.71115   -636.67787   -187.07862   -170691.64    312.59699 
    7400    50.002514    50.002514    50.002514   -6.0495481    383.43583   -368.54298   -33.041501   -170772.68    311.02826 
    7600    49.987638    49.987638    49.987638   -8.6708589    535.63112   -717.79429     156.1506   -170860.38     311.9369 
    7800      49.9597      49.9597      49.9597   -18.811786    923.33401   -814.23195   -165.53742   -170963.92    313.90941 
    8000    49.932865    49.932865    49.932865   -1.3812358     918.3581   -685.84033   -236.66148   -171057.14    313.44486 
    8200    49.920532    49.920532    49.920532    7.0343701    776.16263   -517.45378   -237.60574   -171149.33    312.97472 
    8400    49.913389    49.913389    49.913389    1.2641508    725.12163   -149.11019   -572.21898   -171235.83    311.82572 
    8600    49.906265    49.906265    49.906265    5.4043129    492.16669   -471.18418   -4.7695668   -171314.81    310.38038 
    8800    49.898056    49.898056    49.898056   -7.9366464    469.45959   -403.66314   -89.606383   -171397.96     310.3264 
    9000    49.874134    49.874134    49.874134   -6.5220614    517.41244   -270.78203    -266.1966   -171468.63     309.0825 
    9200    49.849919    49.849919    49.849919   -5.7090219    672.74285   -499.83354   -190.03638   -171525.84    306.60964 
    9400    49.836686    49.836686    49.836686   0.31690449    874.08096     -477.779   -395.35125    -171587.5    306.52599 
    9600    49.821353    49.821353    49.821353    1.0504912    917.76328   -471.03232   -443.57949   -171645.88    306.46018 
    9800    49.799504    49.799504    49.799504  -0.14043011    127.02509    153.26033   -280.70671   -171689.69    304.66552 
   10000    49.784595    49.784595    49.784595   -1.8802853    83.537135    234.26351    -323.4415   -171746.42    306.36203 
Loop time of 929.119 on 1 procs for 10000 steps with 1321 atoms

Performance: 0.009 ns/day, 2580.885 hours/ns, 10.763 timesteps/s
97.1% CPU use with 1 MPI tasks x 1 OpenMP threads

MPI task timing breakdown:
Section |  min time  |  avg time  |  max time  |%varavg| %total
---------------------------------------------------------------
Pair    | 755.47     | 755.47     | 755.47     |   0.0 | 81.31
Neigh   | 0.028919   | 0.028919   | 0.028919   |   0.0 |  0.00
Comm    | 0.05738    | 0.05738    | 0.05738    |   0.0 |  0.01
Output  | 0.38825    | 0.38825    | 0.38825    |   0.0 |  0.04
Modify  | 173.1      | 173.1      | 173.1      |   0.0 | 18.63
Other   |            | 0.0767     |            |       |  0.01

Nlocal:    1321 ave 1321 max 1321 min
Histogram: 1 0 0 0 0 0 0 0 0 0
Nghost:    638 ave 638 max 638 min
Histogram: 1 0 0 0 0 0 0 0 0 0
Neighs:    184107 ave 184107 max 184107 min
Histogram: 1 0 0 0 0 0 0 0 0 0
FullNghs:  0 ave 0 max 0 min
Histogram: 1 0 0 0 0 0 0 0 0 0

Total # of neighbors = 184107
Ave neighs/atom = 139.369
Neighbor list builds = 5
Dangerous builds = 1
unfix 1

# Store final cell length for strain calculations
variable tmp equal "lz"
variable L0 equal ${tmp}
variable L0 equal 49.7845949281262
print "Initial Length, L0: ${L0}"
Initial Length, L0: 49.7845949281262

######################################
# DEFORMATION
reset_timestep	0

fix		1 all npt temp 300 300 1 x 0 0 1 y 0 0 1 drag 1
variable srate equal 1.0e10
variable srate1 equal "v_srate / 1.0e12"
fix		2 all deform 1 z erate ${srate1} remap x units box
fix		2 all deform 1 z erate 0.01 remap x units box

# Output strain and stress info to file
# for units metal, pressure is in [bars] = 100 [kPa] = 1/10000 [GPa]
# p2, p3, p4 are in GPa
variable strain equal "(lz - v_L0)/v_L0"
variable p1 equal "v_strain"
variable p2 equal "-pxx/10000"
variable p3 equal "-pyy/10000"
variable p4 equal "-pzz/10000"
fix def1 all print 100 "${p1} ${p2} ${p3} ${p4}" file SiNT_100.def1.txt screen no

# Use cfg for AtomEye
dump 		1 all custom 100 dump.tensile id type x y z c_csym c_peratom fx fy fz


# Display thermo
thermo 	200
thermo_style	custom step v_strain temp v_p2 v_p3 v_p4 ke pe press

run		25000
Per MPI rank memory allocation (min/avg/max) = 48.1 | 48.1 | 48.1 Mbytes
Step v_strain Temp v_p2 v_p3 v_p4 KinEng PotEng Press 
       0 -7.1361707e-16    306.36203 -0.0083498412 -0.023422497   0.03234803    1205.4333   -171746.42   -1.9189717 
     200         0.02    313.36891 -0.0034087798 -0.0037256513   0.99803987     1233.003   -171606.39   -3303.0181 
     400         0.04    325.16973 -0.0003174689 -0.0024009819    1.4371684    1279.4353   -171320.55      -4781.5 
     600         0.06    327.49149 0.0026202262 0.0020721283    1.9040693    1288.5707   -170876.97   -6362.5387 
     800         0.08    339.24809 0.0027629109 0.0024500823    2.3386081     1334.829    -170338.1   -7812.7368 
    1000          0.1    352.23458 -0.00044966939 0.00052961304    2.7566829    1385.9266   -169714.85   -9189.2096 
    1200         0.12     366.3409 0.0011700551 0.0010440554    3.0506292    1441.4303   -169041.72   -10176.144 
    1400         0.14    380.18434 0.00037554348 -0.00018394917    3.3617796    1495.8996   -168329.47   -11206.571 
    1600         0.16    395.86709 -0.0010662969 -0.0015733868    3.6587708    1557.6061   -167596.33   -12187.104 
    1800         0.18    406.61772 0.0015766057 0.0014825173    3.9034491    1599.9062   -166824.07   -13021.694 
    2000          0.2    414.53365 -9.452428e-05 4.8874222e-05    4.1026779    1631.0528   -166025.84   -13675.441 
    2200         0.22    422.50362 0.00090032064 0.0005814609    4.3077147     1662.412    -165213.9   -14363.988 
    2400         0.24    431.10912 0.0010534606 0.00098042049    4.5376093    1696.2718   -164391.15   -15132.144 
    2600         0.26    439.97298 0.00041960749 0.00034711346    4.7647116    1731.1482   -163556.39   -15884.928 
    2800         0.28     444.2638 0.00030668809 0.00064732521    4.9273256    1748.0311   -162697.12   -16427.599 
    3000          0.3    449.50408 0.00019660342 0.00014436982    5.0830849    1768.6499   -161837.78   -16944.753 
    3200         0.32    457.58478 0.00022014669 0.00028464363    5.2383501    1800.4448   -160998.39   -17462.849 
    3400         0.34    462.79842 0.00037315412 0.00023263092    5.3794867    1820.9587   -160162.48   -17933.642 
    3600         0.36    466.58656 0.00055588381  0.000392356    5.5004009    1835.8638   -159327.73   -18337.831 
    3800         0.38    469.92573 0.00017580169 4.8847433e-05    5.6417544    1849.0023   -158498.28   -18806.597 
    4000          0.4    474.81436 -6.1337274e-05 0.00011290767    5.7259465    1868.2375   -157688.68    -19086.66 
    4200         0.42    476.73371 0.00046493619 0.00046417566    5.8657764    1875.7895   -156882.11   -19555.685 
    4400         0.44    476.93047 -0.00017981658 -0.00027511764    5.9697034    1876.5636   -156066.61   -19897.495 
    4600         0.46    476.45078 -4.6142953e-05 2.8685084e-05    6.1011194    1874.6762   -155246.01   -20337.006 
    4800         0.48    477.28518 0.00011344576 0.00013465702      6.24054    1877.9593   -154421.49   -20802.627 
    5000          0.5    479.59197 0.00021756374 0.00015316276      6.39776    1887.0358   -153596.99   -21327.102 
    5200         0.52    481.76732 0.00033720635 0.00022219286     6.530064    1895.5951   -152774.88   -21768.745 
    5400         0.54    482.26832 0.00023460899 0.00021738231    6.6200165    1897.5663   -151953.25   -22068.228 
    5600         0.56    484.18233 0.00013621186 0.00025730638    6.7720066    1905.0973   -151137.24   -22574.667 
    5800         0.58    488.86217 0.00057143261 0.00091226358    6.8757307     1923.511   -150348.72   -22924.048 
    6000          0.6    483.90361 0.0003423335 0.00040840762     7.032565    1904.0007   -149513.43   -23444.386 
    6200         0.62     485.6574 0.00027493899 -0.00028839154    7.1911884    1910.9013   -148687.43   -23970.583 
    6400         0.64    489.18598 0.00080639351 0.00013407291    7.2182699     1924.785   -147889.56   -24064.034 
    6600         0.66    496.42826 -0.0010395383 -0.00081902019    7.3191418     1953.281   -147145.15   -24390.944 
    6800         0.68    511.19381 0.00035259266 -4.3821586e-05    7.2530791    2011.3786   -146492.94   -24177.959 
    7000          0.7    507.78424 0.00037546964 0.00037783962     7.507529    1997.9631   -145797.33   -25027.608 
    7200         0.72    512.48099 0.00044221526 0.00055750807    7.6655432    2016.4432   -145134.99   -25555.143 
    7400         0.74    519.54104 0.00011841552 -0.00012551154    7.9608589    2044.2222   -144488.19   -26536.173 
    7600         0.76    521.73836 2.0132937e-05 0.00016518698    7.9164107    2052.8679   -143839.67   -26388.653 
    7800         0.78    517.26688 0.00073598974 0.00034220587    7.9924294    2035.2741   -143172.56   -26645.025 
    8000          0.8    525.30881 0.00052912137 8.9857733e-05    8.2419799    2066.9164   -142573.32    -27475.33 
    8200         0.82    531.44649 0.00033134639 0.00034896331    8.5728033    2091.0662    -141946.7   -28578.279 
    8400         0.84    540.28427 0.00045345476 0.00018460963    8.6516313    2125.8399   -141359.01   -28840.898 
    8600         0.86     543.2557 7.0640143e-05 0.00060458419    8.7131168    2137.5315   -140796.73   -29045.973 
    8800         0.88    543.13709 0.00018890936 0.00035792274    9.0939958    2137.0648   -140206.82   -30315.142 
    9000          0.9    548.21614 0.00056610711 -3.7999014e-05    8.9922309    2157.0492   -139626.11   -29975.863 
    9200         0.92    556.20572 0.00064901701 0.00041621219    9.1800273    2188.4855   -139114.43   -30603.642 
    9400         0.94    555.19798 0.00015932885 7.9366019e-05    9.2262279    2184.5204   -138579.47   -30754.889 
    9600         0.96    557.22665 0.00028855498 0.00018090105    9.4165228    2192.5026   -138058.76   -31389.974 
    9800         0.98    564.36676 1.9306097e-06 9.8282014e-05    9.5748166    2220.5965   -137555.94   -31916.389 
   10000            1    568.57429 -7.1018203e-05 0.00034842202    9.6760578    2237.1518   -137063.79   -32254.451 
   10200         1.02     566.4559 0.00046959986 4.2115656e-05    9.5829521    2228.8166    -136577.5   -31944.879 
   10400         1.04    563.78218 0.0001091769 4.9081491e-05    9.5790393    2218.2964   -136096.17   -31930.658 
   10600         1.06    564.93278 -3.7030635e-05 9.8259549e-05    9.6378425    2222.8236   -135633.98   -32126.346 
   10800         1.08    567.40153 0.00036592646 0.00022920722    9.7885189    2232.5374   -135184.37    -32630.38 
   11000          1.1    567.95576 -0.00019714836 0.00086310172    9.6936782    2234.7181   -134743.63   -32314.481 
   11200         1.12    578.22154 9.043099e-05 0.00039985361    9.6182102    2275.1105    -134392.3   -32062.335 
   11400         1.14    586.80528 4.0889661e-05 0.00012816387    9.6107153    2308.8847   -134100.73   -32036.281 
   11600         1.16    589.10573 -4.2934285e-05 -0.00019006106    9.6083035    2317.9362   -133840.89   -32026.902 
   11800         1.18    593.41898 -5.0164377e-05 1.657939e-05    9.4901919    2334.9074   -133615.36   -31633.861 
   12000          1.2    600.05642 0.00038032709 0.00024045634    9.4617151    2361.0236   -133455.32    -31541.12 
   12200         1.22    599.35467 -0.00037574888 -0.00022025155    9.3440979    2358.2624   -133302.76   -31145.006 
   12400         1.24    603.53524 -4.6609546e-05 5.0910513e-05    9.2071983    2374.7115   -133205.99   -30690.675 
   12600         1.26    609.91858 -5.9423916e-05 0.00024175095    9.0675107    2399.8279   -133183.85   -30225.643 
   12800         1.28    606.58721 2.010853e-05 -7.9798795e-05    8.8276116      2386.72   -133166.83   -29425.173 
   13000          1.3     604.9024 5.0391295e-05 6.7563093e-05    8.6996573    2380.0909   -133172.16   -28999.251 
   13200         1.32    609.37627 0.00030515901 0.00037727606    8.5349795    2397.6941    -133244.5   -28452.207 
   13400         1.34    611.08261 0.00021398842 -9.8970974e-05    8.3481231     2404.408    -133355.1    -27827.46 
   13600         1.36    604.22425 0.00011427248 0.00026780317    8.3075117    2377.4226   -133444.23   -27692.979 
   13800         1.38    605.72114 5.5519298e-05 2.963155e-05    8.1699451    2383.3124   -133576.39   -27233.434 
   14000          1.4    607.42919 4.7697304e-05 -0.00022058676    8.0730061     2390.033   -133737.18   -26909.444 
   14200         1.42    610.75871 0.00021181855 9.5945834e-05    7.9844669    2403.1335   -133942.47   -26615.916 
   14400         1.44    607.40438 0.0001700894 0.00027230211    7.7700328    2389.9354    -134161.5   -25901.584 
   14600         1.46    599.84748 0.00019945602 0.00036850688    7.6841746    2360.2014   -134356.19   -25615.809 
   14800         1.48    596.07382 9.1379398e-05 -4.1639652e-05    7.5170862    2345.3533   -134564.86    -25057.12 
   15000          1.5    594.16729 -5.7673104e-05 4.504823e-06    7.4812953    2337.8518   -134780.35   -24937.474 
   15200         1.52    589.51778 1.4057548e-05 5.7594475e-05    7.3082133    2319.5575   -134994.31    -24360.95 
   15400         1.54    586.99669 0.00028549896 4.0719341e-05    7.2068796    2309.6378   -135212.75    -24024.02 
   15600         1.56    586.53574  1.27059e-06 3.9540322e-06    7.1160639    2307.8241   -135454.61    -23720.23 
   15800         1.58    582.26967 0.00015731477 0.00011414157    6.9769661    2291.0386   -135698.51   -23257.458 
   16000          1.6    579.98536 0.00029788785 0.00035057815    6.9930561    2282.0506   -135934.81   -23312.349 
   16200         1.62    571.90214 -0.00024726162 -0.00014024447    6.8329843    2250.2458   -136155.94   -22775.323 
   16400         1.64    568.52263 4.7881227e-05 -1.4052924e-05    6.7515929    2236.9485   -136371.08   -22505.422 
   16600         1.66    562.75613 -3.0086856e-05 -9.7657281e-05    6.6563345    2214.2592   -136584.48   -22187.356 
   16800         1.68    557.33772 0.00033898131 0.00034835733    6.6314167    2192.9396   -136770.68   -22107.013 
   17000          1.7     559.4362 -0.00027729913 -0.00016002983    6.5276444    2201.1964   -137001.41   -21757.357 
   17200         1.72    556.84604 0.00050730506 0.00057789852     6.430581     2191.005   -137223.36   -21438.887 
   17400         1.74    550.98653 4.3572119e-05 5.9995869e-05    6.3601385    2167.9498   -137433.69   -21200.807 
   17600         1.76    554.66634 -0.0001280355 -0.00016034875    6.2803782    2182.4286   -137679.12   -20933.633 
   17800         1.78    560.39465 0.0002757569 0.00029521125    6.1474497    2204.9676   -137982.37   -20493.402 
   18000          1.8    555.72405 0.00018915577 -4.0621183e-05    6.1145086    2186.5904   -138268.24   -20382.191 
   18200         1.82    543.70662 0.00020678998 0.00012221245    6.0959642    2139.3057   -138484.26   -20320.977 
   18400         1.84    541.18315 -0.00027086946 -0.00015933247    6.0680853    2129.3767   -138706.99   -20225.517 
   18600         1.86    538.09855 0.00033179674 0.00023552892    5.9492639    2117.2398   -138932.64   -19832.771 
   18800         1.88    533.41048 -0.00027103267 -1.5505311e-05    5.8286978    2098.7938   -139151.66   -19428.038 
   19000          1.9    529.66853 -0.00017808473 -0.00031025351    5.7858921    2084.0705   -139369.99   -19284.679 
   19200         1.92    527.09234 -3.6636102e-05 -2.4465629e-06    5.7767586     2073.934    -139584.1   -19255.732 
   19400         1.94    526.78426 -3.240608e-05 -8.7401747e-05    5.7211333    2072.7219   -139805.02   -19070.045 
   19600         1.96    524.24059 1.7429128e-05 0.00013345756    5.5846239    2062.7134   -140029.23   -18615.916 
   19800         1.98    524.26497 9.8226723e-05 0.00013593196    5.5376068    2062.8093   -140271.88    -18459.47 
   20000            2    522.68648 5.0223312e-06 2.4787234e-05    5.5110066    2056.5984   -140512.69   -18370.121 
   20200         2.02    519.66794 0.00012287743  3.27674e-05    5.4493283    2044.7215   -140745.04   -18164.946 
   20400         2.04    514.98047 -0.00028393034 -0.0001731282    5.3706653    2026.2778   -140968.92   -17900.694 
   20600         2.06     509.2544 0.00038110123 0.00032095284    5.3083152    2003.7476   -141169.02   -17696.724 
   20800         2.08    512.00245 0.00010980541 5.986188e-05    5.2791853    2014.5603   -141409.74    -17597.85 
   21000          2.1    510.44869 0.00020833414 0.00027737334    5.2441243    2008.4468   -141642.52   -17482.033 
   21200         2.12    506.38768 0.00020960494 0.00036972153    5.1902614    1992.4681   -141862.41   -17302.802 
   21400         2.14     505.0263 0.00028616823 0.00043899575    5.0847013    1987.1115   -142092.84   -16951.421 
   21600         2.16    505.08808 0.00027440127 0.00023795638    5.0778958    1987.3545   -142336.26   -16928.027 
   21800         2.18    499.16726 0.00028002908 0.00022534325     4.922706    1964.0581   -142557.36   -16410.705 
   22000          2.2    491.58728 5.7271506e-05 0.00024068991    4.8916684    1934.2334   -142753.96   -16306.555 
   22200         2.22    490.90742 -3.3892955e-05 5.0905301e-05    4.8707195    1931.5583   -142957.13   -16235.788 
   22400         2.24    490.73817 -5.4065368e-05 0.00011682656    4.8579206    1930.8924   -143171.83   -16193.278 
   22600         2.26    488.60781 0.00058171896 0.00064069582    4.7323058    1922.5101   -143383.26   -15778.427 
   22800         2.28    482.99796 0.0001345385 0.00016620408     4.759906    1900.4372   -143574.41   -15867.356 
   23000          2.3    483.44077 1.9934691e-05 -1.0528723e-05    4.7486719    1902.1795   -143777.06   -15828.938 
   23200         2.32    481.47692 0.00021564172 0.00014386804    4.7308835    1894.4524   -143978.21    -15770.81 
   23400         2.34    477.35173 0.00019314263 0.00017051159    4.7042751    1878.2212   -144155.73   -15682.129 
   23600         2.36    478.20796 -0.00026185559 -8.8230222e-05    4.5770084    1881.5902    -144354.4   -15255.528 
   23800         2.38     474.7479 0.00013661942 9.738683e-06    4.6462737     1867.976   -144543.89   -15488.067 
   24000          2.4    472.39028 0.00052789143 0.00040006498    4.4524351    1858.6995   -144729.77   -14844.543 
   24200         2.42    463.32924 -0.00010563899 -9.5188123e-05    4.5209389    1823.0473   -144879.92   -15069.127 
   24400         2.44    461.49536 0.0001776982 0.00017435002    4.4434554    1815.8316   -145035.55   -14812.692 
   24600         2.46     458.8945 0.00029435773 0.00011758815    4.3588724    1805.5981   -145187.09   -14530.948 
   24800         2.48    457.31866 5.6921599e-05 -2.7053228e-06    4.3292219    1799.3977   -145346.03   -14430.921 
   25000          2.5    455.06319 -4.2630814e-05 -2.416569e-05     4.245151    1790.5232   -145503.13   -14150.281 
Loop time of 2630.15 on 1 procs for 25000 steps with 1321 atoms

Performance: 0.008 ns/day, 2922.390 hours/ns, 9.505 timesteps/s
96.8% CPU use with 1 MPI tasks x 1 OpenMP threads

MPI task timing breakdown:
Section |  min time  |  avg time  |  max time  |%varavg| %total
---------------------------------------------------------------
Pair    | 2267.3     | 2267.3     | 2267.3     |   0.0 | 86.20
Neigh   | 0.49531    | 0.49531    | 0.49531    |   0.0 |  0.02
Comm    | 0.48708    | 0.48708    | 0.48708    |   0.0 |  0.02
Output  | 4.7197     | 4.7197     | 4.7197     |   0.0 |  0.18
Modify  | 356.94     | 356.94     | 356.94     |   0.0 | 13.57
Other   |            | 0.1952     |            |       |  0.01

Nlocal:    1321 ave 1321 max 1321 min
Histogram: 1 0 0 0 0 0 0 0 0 0
Nghost:    2925 ave 2925 max 2925 min
Histogram: 1 0 0 0 0 0 0 0 0 0
Neighs:    98928 ave 98928 max 98928 min
Histogram: 1 0 0 0 0 0 0 0 0 0
FullNghs:  192296 ave 192296 max 192296 min
Histogram: 1 0 0 0 0 0 0 0 0 0

Total # of neighbors = 192296
Ave neighs/atom = 145.569
Neighbor list builds = 130
Dangerous builds = 0

######################################
# SIMULATION DONE
print "All done"
All done

Please see the log.cite file for references relevant to this simulation

Total wall time: 0:59:20
