LAMMPS (3 Mar 2020)
# Input file for uniaxial tensile loading of single crystal aluminum
# Mark Tschopp, November 2010

# ------------------------ INITIALIZATION ----------------------------
units 		real
dimension	3
boundary	p	p	p
atom_style	charge
#variable latparam equal 4.05

# ----------------------- ATOM DEFINITION ----------------------------
read_data	csi5.data.alpha
  orthogonal box = (-50 -50 0) to (50 50 50)
  1 by 1 by 1 MPI processor grid
  reading atoms ...
  5870 atoms
  read_data CPU = 0.00535349 secs

# ------------------------ FORCE FIELDS ------------------------------
pair_style      reax/c lmp_control
pair_coeff      * * ffield_SEI.txt C Si
WARNING: VdWaals-parameters for element O indicate inner wall+shielding, but earlier atoms indicate different vdWaals-method. This may cause division-by-zero errors. Keeping vdWaals-setting for earlier atoms. (../reaxc_ffield.cpp:259)

# ------------------------- SETTINGS ---------------------------------
compute peratom all pe/atom
compute csym all centro/atom 12
compute reax all pair reax/c

######################################
# EQUILIBRATION
reset_timestep	0
timestep 0.01
velocity all create 300 12345 mom yes rot no
fix 1 all npt temp 300 300 1 iso 0 0 1 drag 1
fix 3 all qeq/reax 1 0.0 10.0 1e-6 reax/c
# Set thermo output
thermo 100
thermo_style custom step lx ly lz press pxx pyy pzz pe temp

# Run for at least 10 picosecond (assuming 1 fs timestep)
run 10000
Neighbor list info ...
  update every 1 steps, delay 10 steps, check yes
  max neighbors/atom: 2000, page size: 100000
  master list distance cutoff = 12
  ghost atom cutoff = 12
  binsize = 6, bins = 17 17 9
  3 neighbor lists, perpetual/occasional/extra = 2 1 0
  (1) pair reax/c, perpetual
      attributes: half, newton off, ghost
      pair build: half/bin/newtoff/ghost
      stencil: half/ghost/bin/3d/newtoff
      bin: standard
  (2) compute centro/atom, occasional
      attributes: full, newton on
      pair build: full/bin/atomonly
      stencil: full/bin/3d
      bin: standard
  (3) fix qeq/reax, perpetual, copy from (1)
      attributes: half, newton off, ghost
      pair build: copy
      stencil: none
      bin: none
Per MPI rank memory allocation (min/avg/max) = 411.5 | 411.5 | 411.5 Mbytes
Step Lx Ly Lz Press Pxx Pyy Pzz PotEng Temp 
       0          100          100           50    298200.78    295884.42    296869.69    301848.22    737196.69          300 
     100    134.86804    134.86804    67.434021   -225.67924    61.865344    1363.8151   -2102.7182   -520337.83    1675.9977 
     200    134.34981    134.34981    67.174906   -43.502608    214.77677   -134.05548   -211.22911   -540078.86    1775.1101 
     300    134.14578    134.14578    67.072888   -4.6365085    439.18507    714.88488   -1167.9795    -555751.8     1670.895 
     400    133.95271    133.95271    66.976357   -33.801858    411.08889    420.86709   -933.36156   -571507.05    1639.8415 
     500    133.82555    133.82555    66.912777   -13.893955    505.01523      -539.24   -7.4570935   -586767.16    1609.8789 
     600    133.72389    133.72389    66.861943  -0.50207932   -429.73173    569.89048   -141.66499   -601267.26    1569.9947 
     700       133.67       133.67    66.834999    11.761432    219.21257     315.3657   -499.29397   -614743.92    1516.3611 
     800    133.90574    133.90574    66.952869   -14815.672   -14575.393   -13874.866   -15996.757   -626286.56    1451.1744 
     900    133.96681    133.96681    66.983406   -17372.898   -17037.531   -16289.124    -18792.04   -637075.21    1377.0333 
    1000    134.05252    134.05252    67.026261   -21588.241   -21685.873   -20467.766   -22611.083   -646867.93    1321.5607 
    1100    134.03109    134.03109    67.015543   -21509.619   -20656.244   -21088.473    -22784.14   -656717.78    1278.2642 
    1200    134.07772    134.07772    67.038861    -23671.23   -23031.999   -23273.108   -24708.582   -665317.66    1221.5747 
    1300    134.08956    134.08956    67.044782   -24193.678   -23851.564   -23381.753   -25347.716   -673823.87    1184.7321 
    1400    134.22143    134.22143    67.110716   -29311.392   -28589.715   -28351.557   -30992.902   -680414.55    1136.9502 
    1500    134.10294    134.10294    67.051471   -24106.551   -23421.319   -23270.967   -25627.367    -689188.9    1102.8844 
    1600     134.3306     134.3306    67.165299   -33251.496    -32356.94   -32371.581   -35025.969   -693712.21    1066.2458 
    1700    133.56797    133.56797    66.783984    3656.3625    2249.5812    3631.7791    5087.7274   -705735.38     1043.298 
    1800    134.69279    134.69279    67.346393   -42206.379   -41109.058   -41202.077   -44308.004   -701078.47    993.11917 
    1900    133.36499    133.36499    66.682497    24666.869    23771.133    23938.067    26291.407   -716952.66    986.22671 
    2000    133.36035    133.36035    66.680175    26260.675    25497.197    25095.936    28188.891   -722133.72    948.97408 
    2100    133.27555    133.27555    66.637777      36749.7    34611.122    36045.857     39592.12    -726042.1    918.27709 
    2200    134.66147    134.66147    67.330736   -40546.208   -39731.592   -39669.108   -42237.925   -723292.44    873.65468 
    2300    133.89146    133.89146    66.945732   -13763.278   -14412.789   -13451.449   -13425.595   -737088.35    863.18448 
    2400    135.41728    135.41728    67.708638   -50921.264   -49677.241   -49736.435   -53350.114   -718444.19    822.11446 
    2500      133.222      133.222       66.611    54251.778     51498.52    52100.465    59156.348   -741855.23    824.15544 
    2600    133.11669    133.11669    66.558345    69203.089    65073.759    65589.916    76945.592   -743363.56    809.65784 
    2700    135.24038    135.24038    67.620189   -47904.854   -46800.438   -47045.107   -49869.018   -734177.33    765.38879 
    2800    133.23558    133.23558    66.617788    55625.196    52837.456    53462.815    60575.318   -752931.14    765.90617 
    2900    135.43735    135.43735    67.718674   -49443.245   -48145.247   -48423.317   -51761.171   -737495.54    725.39678 
    3000    133.87413    133.87413    66.937067    -9863.545   -9759.7438   -9568.0004   -10262.891   -763396.51    722.79692 
    3100    135.18752    135.18752    67.593761   -45468.701   -44156.875   -44469.149    -47780.08   -748949.86    694.59667 
    3200    133.88535    133.88535    66.942674   -8245.1769   -8532.2049   -7454.6645   -8748.6612    -769516.4    693.63376 
    3300    134.23287    134.23287    67.116434   -26385.055   -25847.559   -25572.012   -27735.594   -769549.52    665.92255 
    3400    133.45435    133.45435    66.727177    34068.833    32258.981    32503.996    37443.523   -772462.92    660.09525 
    3500    134.21663    134.21663    67.108313   -23678.023    -23401.34   -22336.361   -25296.369   -774901.21    643.38717 
    3600    135.84824    135.84824    67.924118   -52388.844    -51236.15   -50952.642    -54977.74   -750940.87     620.2471 
    3700    134.17404    134.17404    67.087019   -20672.206   -20332.893   -19983.516    -21700.21   -780317.53    627.60339 
    3800    135.80615    135.80615    67.903076   -50665.487   -49545.424   -49210.988   -53240.049   -757232.38    599.08901 
    3900    134.19991    134.19991    67.099953    -20426.75   -19402.707   -20806.442   -21071.101   -784559.85    604.68121 
    4000     133.3354     133.3354    66.667701    65285.197    63369.078    62173.212    70313.301    -782195.7    603.91114 
    4100    135.69236    135.69236    67.846182    -48334.96   -46961.567   -47113.273   -50930.041   -766529.79    571.11252 
    4200    134.10747    134.10747    67.053733   -11769.786   -11617.213   -11567.591   -12124.554   -791401.12    573.16565 
    4300    134.34655    134.34655    67.173276   -24750.649   -23874.937   -24179.881   -26197.128    -791524.4    564.20516 
    4400    136.14075    136.14075    68.070375   -54430.856   -52900.136   -53053.913   -57338.519   -762839.85    542.37204 
    4500    135.10556    135.10556     67.55278   -41305.745   -40369.152   -40184.072    -43364.01   -784639.72    543.55349 
    4600    135.89452    135.89452    67.947261   -49838.661   -48559.405   -48226.758   -52729.819   -772128.64    531.99716 
    4700    135.88672    135.88672    67.943361   -49612.629   -48192.286   -48136.244   -52509.358   -774168.64    523.82634 
    4800    134.29907    134.29907    67.149537   -19120.019   -18848.156   -18742.137   -19769.764   -800457.32    528.42016 
    4900    133.42204    133.42204     66.71102     67998.73     64639.05    66467.009     72890.13   -797563.05    528.29724 
    5000    135.90499    135.90499    67.952495   -49428.703   -48140.785   -47950.612   -52194.712   -779218.98    505.36349 
    5100    134.36249    134.36249    67.181244   -21669.187   -21657.328    -20838.35   -22511.884   -804278.29    513.26578 
    5200    133.42578    133.42578    66.712888    67201.165    63854.091    65889.422    71859.983   -801545.52    513.12566 
    5300    135.80453    135.80453    67.902267   -46136.713   -44935.785   -44695.984   -48778.371   -785957.37    491.99476 
    5400    134.34705    134.34705    67.173525   -18721.163   -18081.136    -18330.51   -19751.843   -808678.52    500.02084 
    5500    133.47711    133.47711    66.738557     63520.99    61291.276    61844.438    67427.255   -806323.17    503.62697 
    5600      135.905      135.905    67.952498   -49339.866    -48033.26   -48000.412   -51985.927    -788457.7    482.01295 
    5700    134.36998    134.36998    67.184988    -20329.77   -19919.728   -19898.494   -21171.089    -812778.2     486.3141 
    5800    133.47646    133.47646    66.738231    69812.649    65527.446    68958.078    74952.422   -809491.92    486.37886 
    5900    135.98756    135.98756    67.993782   -48821.963   -47805.924   -47265.436   -51394.529   -790972.41    463.29386 
    6000    134.46041    134.46041    67.230203   -22186.253   -21850.573   -21717.155    -22991.03   -815482.73     468.1915 
    6100    133.50776    133.50776    66.753879    65698.648     62560.56    64055.472     70479.91    -812958.2    472.47237 
    6200    135.87664    135.87664    67.938318   -45985.274    -45186.97   -44396.059   -48372.793   -797202.37    453.87025 
    6300    134.43434    134.43434     67.21717   -19417.659   -18979.911   -19239.518   -20033.547   -819162.34    456.03374 
    6400    133.53843    133.53843    66.769214    67042.218    63583.093    65099.028    72444.531   -816217.17    458.08559 
    6500    136.00731    136.00731    68.003654   -48776.087   -47932.077   -47325.771   -51070.415   -798100.23    438.92881 
    6600    134.48596    134.48596    67.242978   -21725.763   -21284.163   -21276.783   -22616.343   -821891.15    444.20665 
    6700     133.5411     133.5411    66.770551    67948.534    65202.834    65562.832    73079.937   -818943.66    448.96992 
    6800    135.93561    135.93561    67.967805   -45903.867   -44989.061   -44514.746   -48207.794   -802808.04    429.14677 
    6900    134.48599    134.48599    67.242996   -19654.429   -19058.568   -19407.823   -20496.897   -824885.83    437.76128 
    7000    133.58332    133.58332    66.791659     65961.34    63102.916    63839.992    70941.111   -822121.68    438.16685 
    7100    136.01979    136.01979    68.009893   -48384.528   -47473.206    -46956.59   -50723.788   -804201.43    419.82386 
    7200    134.50206    134.50206    67.251032   -21090.499   -20397.736   -20443.368   -22430.392   -827363.67    426.62557 
    7300    133.56566    133.56566     66.78283    69054.899     67507.05     66525.08    73132.567   -824228.29    430.18658 
    7400    136.00577    136.00577    68.002887    -46592.68   -45689.355     -45102.1   -48986.586   -807290.78    414.61394 
    7500    134.54887    134.54887    67.274436   -21663.578   -21115.264   -20878.225   -22997.246   -829410.42    423.99247 
    7600    133.59003    133.59003    66.795017    64751.537    62577.053    62545.872    69131.687   -827286.17    427.61391 
    7700    135.95621    135.95621    67.978106   -45686.694    -44843.37   -44235.902   -47980.811   -810963.57    409.25116 
    7800    134.52575    134.52575    67.262876   -20052.624   -19680.586    -19318.28   -21159.005      -832320     415.3453 
    7900     133.6009     133.6009    66.800452     68375.93    66902.582    65138.241    73086.965   -829410.27    419.14791 
    8000    136.08965    136.08965    68.044827   -47766.648   -46497.111   -46440.321   -50362.512   -811090.47    402.13767 
    8100    134.59067    134.59067    67.295335   -22151.314    -21814.29   -21514.088   -23125.564   -834029.32    407.85137 
    8200    133.61094    133.61094     66.80547    64390.019    61722.676    61822.784    69624.598      -831676    411.77451 
    8300    135.92605    135.92605    67.963024   -44428.218   -43115.454   -43332.201   -46836.998   -816530.27    397.39839 
    8400    134.52802    134.52802    67.264012   -19410.398   -18701.197   -18734.461   -20795.537   -836941.32    405.49792 
    8500    133.61577    133.61577    66.807885    68456.535    65677.687    65931.408    73760.509    -833962.3    410.66755 
    8600    136.07549    136.07549    68.037743   -47708.402   -46481.247    -46524.19   -50119.768   -815847.67    394.09778 
    8700    134.59187    134.59187    67.295935   -22812.931   -22285.649   -22417.505   -23735.641   -838366.99    401.24462 
    8800    133.59718    133.59718    66.798591    66947.213    63383.392    64706.458    72751.788   -835965.35    408.30784 
    8900    135.90208    135.90208    67.951038   -42817.452    -41617.26   -41510.049   -45325.046   -821255.04    393.32549 
    9000    134.56051    134.56051    67.280253   -19864.453   -19419.888   -19443.426   -20730.044   -840637.64    400.53131 
    9100    133.62062    133.62062    66.810308    64077.814    61697.688    62031.732    68504.023   -838515.33    406.45089 
    9200    136.04156    136.04156    68.020778   -47182.496   -45955.872   -45769.453   -49822.162   -820926.16     390.8822 
    9300    134.58039    134.58039    67.290195    -21938.61   -21425.794   -21503.925    -22886.11   -842690.71    398.78093 
    9400    133.60975    133.60975    66.804876    65460.734    63074.709    63301.219    70006.274   -840437.46    401.71943 
    9500    135.92567    135.92567    67.962834   -43160.549   -42172.779   -41918.752   -45390.117   -825101.79    384.72931 
    9600    134.58792    134.58792    67.293959   -20939.345   -20560.896   -20627.823   -21629.317   -844320.28    390.24886 
    9700     133.6256     133.6256    66.812799    61707.453    59755.669    59141.692    66224.996   -842619.92    394.19097 
    9800    135.93556    135.93556    67.967779   -44953.808   -43748.538   -43647.008   -47465.878   -826820.05    381.21761 
    9900    134.55989    134.55989    67.279943   -20927.371   -20330.448   -20767.492   -21684.173   -846602.42    387.74521 
   10000    133.60704    133.60704    66.803519    65880.498    64520.189    63480.947    69640.358   -844120.48    391.23847 
Loop time of 9023.3 on 1 procs for 10000 steps with 5870 atoms

Performance: 0.001 ns/day, 25064.722 hours/ns, 1.108 timesteps/s
99.5% CPU use with 1 MPI tasks x no OpenMP threads

MPI task timing breakdown:
Section |  min time  |  avg time  |  max time  |%varavg| %total
---------------------------------------------------------------
Pair    | 5578.9     | 5578.9     | 5578.9     |   0.0 | 61.83
Neigh   | 36.841     | 36.841     | 36.841     |   0.0 |  0.41
Comm    | 0.27325    | 0.27325    | 0.27325    |   0.0 |  0.00
Output  | 0.011312   | 0.011312   | 0.011312   |   0.0 |  0.00
Modify  | 3407       | 3407       | 3407       |   0.0 | 37.76
Other   |            | 0.238      |            |       |  0.00

Nlocal:    5870 ave 5870 max 5870 min
Histogram: 1 0 0 0 0 0 0 0 0 0
Nghost:    1611 ave 1611 max 1611 min
Histogram: 1 0 0 0 0 0 0 0 0 0
Neighs:    1.49682e+06 ave 1.49682e+06 max 1.49682e+06 min
Histogram: 1 0 0 0 0 0 0 0 0 0
FullNghs:  0 ave 0 max 0 min
Histogram: 1 0 0 0 0 0 0 0 0 0

Total # of neighbors = 1496818
Ave neighs/atom = 254.995
Neighbor list builds = 796
Dangerous builds = 460
unfix 1

# Store final cell length for strain calculations
variable tmp equal "lz"
variable L0 equal ${tmp}
variable L0 equal 66.8035193991341
print "Initial Length, L0: ${L0}"
Initial Length, L0: 66.8035193991341

######################################
# DEFORMATION
reset_timestep	0

fix		1 all npt temp 300 300 1 x 0 0 1 y 0 0 1 drag 1
variable srate equal 1.0e10
variable srate1 equal "v_srate / 1.0e12"
fix		2 all deform 1 z erate ${srate1} remap x units box
fix		2 all deform 1 z erate 0.01 remap x units box

# Output strain and stress info to file
# for units metal, pressure is in [bars] = 100 [kPa] = 1/10000 [GPa]
# p2, p3, p4 are in GPa
variable strain equal "(lz - v_L0)/v_L0"
variable p1 equal "v_strain"
variable p2 equal "-pxx/10000"
variable p3 equal "-pyy/10000"
variable p4 equal "-pzz/10000"
fix def1 all print 100 "${p1} ${p2} ${p3} ${p4}" file SiNT_100.def1.txt screen no

# Use cfg for AtomEye
dump 		1 all custom 100 dump.tensile id type x y z c_csym c_peratom fx fy fz


# Display thermo
thermo 	100
thermo_style	custom step v_strain temp v_p2 v_p3 v_p4 ke pe press

run		10000
Per MPI rank memory allocation (min/avg/max) = 405.1 | 405.1 | 405.1 Mbytes
Step v_strain Temp v_p2 v_p3 v_p4 KinEng PotEng Press 
       0 -4.2545228e-16    391.23847   -6.4520188   -6.3480946   -6.9640358    6844.4722   -844120.48    65880.498 
     100         0.01    450.95406   0.73879771   0.72698521    2.2726935    7889.1591   -849473.16   -12461.588 
     200         0.02    536.46243    2.5651262    2.5477357    3.7148147    9385.0745   -846075.33   -29425.589 
     300         0.03    616.60484   -7.5581939   -7.4648486   -1.6437232    10787.116   -840522.82    55555.885 
     400         0.04    627.28279    3.9548571    3.9029313    4.8680518     10973.92   -836217.58   -42419.467 
     500         0.05    642.10514    -2.805283   -2.7600605   0.51324682    11233.228   -842784.74    16840.322 
     600         0.06    648.76666   -6.9523381   -6.8522213   -1.6908107    11349.767   -836319.81    51651.234 
     700         0.07    645.92348    1.5921041    1.5781054    3.4819517    11300.027   -839428.87   -22173.871 
     800         0.08    662.42012   -3.2512468   -3.2738379   0.87734718    11588.625   -837292.32    18825.792 
     900         0.09    684.63623    -5.555305   -5.5015972  -0.38347563    11977.282   -832346.02    38134.593 
    1000          0.1    691.43661   -2.7047215   -2.6875163    1.3372106    12096.251   -833889.39    13516.757 
    1100         0.11    709.18328    -7.215477    -7.225424  -0.86903621    12406.718   -826681.49    51033.124 
    1200         0.12    715.36071    3.7441632    3.7268751    5.4042698    12514.788   -821941.74   -42917.694 
    1300         0.13    734.79878   -1.8015861   -1.7894433    2.0222135    12854.845   -828922.85    5229.3865 
    1400         0.14    737.05037    2.9360256    2.8969879    4.9827584    12894.235   -824437.94   -36052.573 
    1500         0.15    756.01176   -3.5638088   -3.5350058    1.2585404    13225.953   -823583.64    19467.581 
    1600         0.16    760.86966    2.3602968    2.3302259    4.7075514    13310.939   -822555.17   -31326.914 
    1700         0.17    770.22405   -6.5036529   -6.3536588   0.22921937    13474.588    -817048.7    42093.641 
    1800         0.18    768.53239    0.3368541   0.32911545    3.4499448    13444.993   -820544.24   -13719.714 
    1900         0.19    773.84283    3.7580934    3.6904414    5.6943177    13537.896   -809269.98   -43809.508 
    2000          0.2    786.57532   0.64706073   0.64721863    3.7561323    13760.643   -817538.34   -16834.706 
    2100         0.21    789.68137    2.1123047    2.1121947     4.685863    13814.981   -815048.15   -29701.208 
    2200         0.22    796.07209    2.6253432    2.5910253    5.0762651    13926.783   -812748.29   -34308.778 
    2300         0.23    803.00819    2.4182127    2.4023836    4.9640775    14048.126   -812083.59   -32615.579 
    2400         0.24     810.9904    2.1939775    2.1598402    4.7877002     14187.77   -811380.72   -30471.726 
    2500         0.25    817.57027    1.9613405    1.9091482     4.640341     14302.88   -810825.73   -28369.432 
    2600         0.26    824.72916    2.1522286     2.101049    4.7921215     14428.12   -809703.76   -30151.331 
    2700         0.27    833.48708    2.0997187    2.0580847    4.7235447    14581.335   -809058.79   -29604.494 
    2800         0.28    834.30995     2.060644    2.0325497    4.6680769     14595.73   -808418.76   -29204.235 
    2900         0.29    839.50336    1.9364753    1.9246627    4.5781933    14686.586   -808094.94   -28131.104 
    3000          0.3    836.93426    1.8415933    1.8197183    4.5173098    14641.641   -807748.72   -27262.072 
    3100         0.31     836.9216    1.8068595    1.7603726    4.4783879     14641.42   -807301.47   -26818.734 
    3200         0.32    842.27101    1.9403091    1.9050919    4.5313441    14735.004   -806784.43   -27922.484 
    3300         0.33    847.11122    1.5900632    1.5629373    4.2660985    14819.681   -807049.16    -24730.33 
    3400         0.34    848.33882    1.7321212    1.7183507    4.3083874    14841.157    -806783.9   -25862.865 
    3500         0.35     847.8242    1.3864513    1.3976318    4.0860253    14832.154   -807134.48   -22900.361 
    3600         0.36      852.809    1.5647137     1.547195    4.1920402     14919.36   -807090.08   -24346.496 
    3700         0.37    856.64504    1.1327205     1.109501    3.8692085    14986.469   -807711.84   -20371.433 
    3800         0.38    853.88902    1.2420613    1.2489518    3.9440927    14938.254   -807853.07   -21450.353 
    3900         0.39    854.99095    1.2207797    1.2297289    3.9140709    14957.532   -808173.89   -21215.265 
    4000          0.4    854.73428    1.2140633    1.2122196    3.8031853    14953.041   -808585.85   -20764.894 
    4100         0.41    854.10357    1.0388775    1.0412537    3.7306946    14942.007   -809150.91   -19369.419 
    4200         0.42    858.02273    1.1690227    1.1591574     3.806473    15010.571   -809569.13   -20448.843 
    4300         0.43    857.76886   0.98727638   0.96900091    3.7084942    15006.129   -810176.46   -18882.572 
    4400         0.44    857.77874   0.96568764   0.95509647    3.6120009    15006.302   -810750.81   -18442.617 
    4500         0.45    853.59897   0.84067609   0.84288162    3.5307213     14933.18   -811383.17    -17380.93 
    4600         0.46    851.13366    1.0597899    1.0614178    3.6202866    14890.051   -811851.79   -19138.314 
    4700         0.47    849.73382   0.81872885   0.82323176    3.4039216    14865.561   -812714.27   -16819.607 
    4800         0.48    852.80389   0.48020546   0.47471396    3.1929277     14919.27    -813698.4   -13826.157 
    4900         0.49    850.06435   0.63479196   0.63271397    3.2921933    14871.344   -814393.97   -15198.997 
    5000          0.5     847.7858    0.6821458   0.67688396    3.2974369    14831.482      -815176   -15521.556 
    5100         0.51    844.77078 -0.0070552314 -0.006343682    2.8718937    14778.736   -816089.58    -9528.316 
    5200         0.52    844.88268  -0.77284759  -0.76522893    2.4537488    14780.694   -816775.66   -3052.2408 
    5300         0.53    844.18021   0.53875438   0.52902051    3.1552871    14768.405   -817685.39   -14076.873 
    5400         0.54    842.74736   0.62231256   0.61882519    3.2352558    14743.338   -818506.24   -14921.312 
    5500         0.55    840.35035  -0.16089879  -0.16342608    2.7714418    14701.403   -819449.88   -8157.0563 
    5600         0.56    834.52423   0.38473633   0.38221816    3.0307329    14599.479   -820232.05   -12658.958 
    5700         0.57    828.55942  -0.16159681  -0.16088151    2.7074655    14495.129   -821053.18   -7949.9574 
    5800         0.58    828.21483   0.23366536   0.23408654    2.8913437      14489.1   -821935.27   -11196.985 
    5900         0.59    823.87392  0.028273066   0.02828032    2.8076191    14413.159   -822783.32   -9547.2415 
    6000          0.6    817.63381 -0.013911893 -0.014468407    2.7741512    14303.992   -823525.91   -9152.5698 
    6100         0.61    816.92531 -0.023950377 -0.025037521    2.7178587    14291.597   -824336.34   -8896.2361 
    6200         0.62    811.40937  0.020958618  0.020821486    2.7195489    14195.099   -825129.99     -9204.43 
    6300         0.63    809.71753 -0.0098120784 -0.0089458001    2.7304818    14165.501   -825955.81   -9039.0796 
    6400         0.64    807.57991  0.027609721  0.027388713    2.7273142    14128.105   -826776.88   -9274.3753 
    6500         0.65    801.22552 -0.00025759924 0.00050221334    2.6818989    14016.939   -827533.84   -8940.4783 
    6600         0.66    797.59345 -0.013386804 -0.016370742      2.67933    13953.398   -828297.46   -8831.9082 
    6700         0.67    793.08377 0.0088365782  0.007391044     2.710894    13874.504   -828979.78   -9090.4053 
    6800         0.68    788.30087 -0.010658436 -0.0083770588    2.6832928     13790.83    -829642.1   -8880.8576 
    6900         0.69     783.5928 0.0094259003 0.0093918797    2.6151835    13708.466   -830314.09   -8780.0043 
    7000          0.7    777.85455 0.0079004996 0.0074551159    2.5889248    13608.079   -831009.51   -8680.9346 
    7100         0.71    771.73029 -0.0022426241 -0.00036035063    2.5771176    13500.939   -831652.38   -8581.7153 
    7200         0.72    766.13769 -0.00043396329 -0.0032388256    2.5508052      13403.1   -832275.32   -8490.4415 
    7300         0.73    767.01651 0.0022963953 0.0010148244    2.5398176    13418.474   -833017.77   -8477.0962 
    7400         0.74    763.01678 -0.0011418343 0.0011127819    2.5401559    13348.501   -833699.77   -8467.0893 
    7500         0.75    763.70491 0.0015401859 3.3140306e-05    2.5496957     13360.54   -834433.06   -8504.2302 
    7600         0.76    766.51109 0.0019775755 0.0036666127    2.5301441    13409.632   -835236.05   -8452.6276 
    7700         0.77    764.71921  0.002047505 0.0024709492    2.5447844    13378.284    -835985.9   -8497.6761 
    7800         0.78    761.04115 -0.0038281441 -0.0026081215    2.4942488    13313.939   -836728.26   -8292.7085 
    7900         0.79    755.65586 0.0019600888 0.0011372726    2.4559866    13219.726    -837436.8   -8196.9466 
    8000          0.8    749.50957 -0.00056815925 0.00055845443    2.4750269    13112.201   -838121.32   -8250.0573 
    8100         0.81    746.96164 -7.5216077e-05 0.0013344678    2.4221005    13067.626    -838828.9   -8077.8658 
    8200         0.82    742.83536 -0.0048941949 -0.0040284206    2.4542474     12995.44   -839508.67   -8151.0826 
    8300         0.83    740.38695 -0.0015839644 -0.0011694094    2.4589575    12952.606   -840164.75    -8187.347 
    8400         0.84    738.80056 0.00068938439 0.0025794512    2.4488971    12924.853   -840826.35   -8173.8864 
    8500         0.85    733.19884 -0.0036790315 -0.0009842904     2.472057    12826.855   -841398.63   -8224.6457 
    8600         0.86    728.37872 0.0036388643  0.003969151    2.4336389     12742.53   -841952.53   -8137.4899 
    8700         0.87    724.79275 0.0022411593  0.001519725    2.4216909    12679.796   -842526.91   -8084.8392 
    8800         0.88    724.24334 -0.00010500649 0.00010977852    2.4166604    12670.184   -843155.79   -8055.5504 
    8900         0.89    719.53763 0.0010079154 0.0018844369    2.3889899    12587.861   -843703.92   -7972.9407 
    9000          0.9    713.30373 -0.0063834252 -0.0060791238    2.4225266    12478.802   -844198.61   -8033.5468 
    9100         0.91    711.45291 0.0012367995 0.0014555891    2.4359857    12446.423   -844686.79    -8128.927 
    9200         0.92    709.97595 -0.017618679  -0.01705527    2.4214719    12420.585   -845173.38   -7955.9933 
    9300         0.93    705.37318 0.0025349194 0.0024595873    2.4114561    12340.062   -845621.95   -8054.8354 
    9400         0.94    703.96859 0.0026017015  0.003716758    2.4148073     12315.49   -846106.39   -8070.4193 
    9500         0.95     702.1029 -0.0012889271 -0.00032008905    2.3950595    12282.851   -846583.81   -7978.1683 
    9600         0.96    699.79443 -0.0015196008 -0.0011223948    2.4319781    12242.466   -847021.12    -8097.787 
    9700         0.97    699.06855 0.0014413209 0.00043959835    2.4667428    12229.767    -847445.8   -8228.7456 
    9800         0.98    701.15003 -0.00010072341 0.00016584659      2.43254    12266.181   -847944.07   -8108.6838 
    9900         0.99    702.76037 -0.0030494236 -0.0072678522    2.3751465    12294.353   -848487.34   -7882.7641 
   10000            1    700.19338 -0.0025630154 -0.0024114898    2.4170569    12249.445   -848986.31   -8040.2747 
Loop time of 6399.87 on 1 procs for 10000 steps with 5870 atoms

Performance: 0.001 ns/day, 17777.406 hours/ns, 1.563 timesteps/s
99.6% CPU use with 1 MPI tasks x no OpenMP threads

MPI task timing breakdown:
Section |  min time  |  avg time  |  max time  |%varavg| %total
---------------------------------------------------------------
Pair    | 4246.7     | 4246.7     | 4246.7     |   0.0 | 66.36
Neigh   | 7.763      | 7.763      | 7.763      |   0.0 |  0.12
Comm    | 0.14331    | 0.14331    | 0.14331    |   0.0 |  0.00
Output  | 11.265     | 11.265     | 11.265     |   0.0 |  0.18
Modify  | 2133.6     | 2133.6     | 2133.6     |   0.0 | 33.34
Other   |            | 0.3291     |            |       |  0.01

Nlocal:    5870 ave 5870 max 5870 min
Histogram: 1 0 0 0 0 0 0 0 0 0
Nghost:    645 ave 645 max 645 min
Histogram: 1 0 0 0 0 0 0 0 0 0
Neighs:    1.06851e+06 ave 1.06851e+06 max 1.06851e+06 min
Histogram: 1 0 0 0 0 0 0 0 0 0
FullNghs:  2.1262e+06 ave 2.1262e+06 max 2.1262e+06 min
Histogram: 1 0 0 0 0 0 0 0 0 0

Total # of neighbors = 2126198
Ave neighs/atom = 362.214
Neighbor list builds = 169
Dangerous builds = 61

######################################
# SIMULATION DONE
print "All done"
All done

Please see the log.cite file for references relevant to this simulation

Total wall time: 4:17:08
