Created by bestin,amorphous carbon coating-silicon nanotube

5710 atoms
2 atom types

-0.500000E+02 0.50000E+02 xlo xhi
-0.500000E+02 0.50000E+02 ylo yhi
0.0000000E+02 0.50000E+02 zlo zhi

Masses

1 12.0107
2 28.0855

Atoms

1 1 0 6.98195 -7.7645 0.0255377
2 1 0 -7.03875 -6.4466 0.117606
3 1 0 3.8882 -5.8576 0.070764
4 1 0 7.1352 -6.3371 0.088411
5 1 0 10.6936 -3.30835 0.0223241
6 1 0 -10.1322 -2.43485 0.0919035
7 1 0 11.2132 -2.09045 0.00834245
8 1 0 -11.1502 -0.0998001 0.072695
9 1 0 -10.0045 0.4711 0.00476409
10 1 0 -12.0013 1.2655 0.059075
11 1 0 7.5805 1.51395 0.138663
12 1 0 -10.6164 3.31365 0.0114643
13 1 0 -8.54025 3.0679 0.0649845
14 1 0 -7.28405 3.70795 0.0637215
15 1 0 9.94895 3.5334 0.097797
16 1 0 -7.589 5.0282 0.110622
17 1 0 6.20365 6.24305 0.069749
18 1 0 9.6671 6.1962 0.0640615
19 1 0 -2.5579 7.8182 0.0514405
20 1 0 0.382301 8.6733 0.0304516
21 1 0 -1.3521 -11.7298 6.883
22 1 0 3.05755 -11.7469 6.93885
23 1 0 -1.72835 -10.6181 7.276
24 1 0 0.900501 -10.3885 6.91705
25 1 0 2.952 -10.5034 6.7672
26 1 0 -6.3437 -10.2316 6.95655
27 1 0 -2.78935 -9.7343 6.81675
28 1 0 -0.5047 -9.55695 6.8134
29 1 0 1.8217 -9.39245 6.68395
30 1 0 3.0915 -9.27515 6.99285
31 1 0 4.95475 -9.58665 6.1144
32 1 0 -8.08005 -8.4555 6.72385
33 1 0 -6.291 -8.69765 6.78065
34 1 0 -4.6633 -8.91265 6.2725
35 1 0 -2.4098 -8.13765 7.2572
36 1 0 -1.61215 -8.9941 7.1501
37 1 0 -0.5319 -8.21 6.2032
38 1 0 0.733849 -8.89105 6.2436
39 1 0 4.25785 -8.4179 7.2
40 1 0 5.7944 -8.1919 6.41165
41 1 0 6.6833 -8.91015 7.18935
42 1 0 7.8325 -8.122 6.47885
43 1 0 -8.6888 -7.07845 7.2161
44 1 0 -6.84145 -7.62385 6.46085
45 1 0 -4.91325 -7.90335 7.058
46 1 0 -5.18395 -6.9095 6.32305
47 1 0 -3.6414 -7.4818 6.5298
48 1 0 -2.46055 -6.77645 7.0767
49 1 0 3.12205 -7.6085 7.14935
50 1 0 4.80435 -7.0059 7.2987
51 1 0 -9.34775 -5.88595 6.9247
52 1 0 -7.6244 -6.43105 6.53025
53 1 0 -6.47755 -6.20355 6.976
54 1 0 3.54995 -6.1405 7.21205
55 1 0 5.6942 -5.93275 7.0901
56 1 0 6.76835 -6.5257 6.72655
57 1 0 8.5905 -6.191 6.7031
58 1 0 -10.4794 -5.38225 6.41825
59 1 0 -8.04645 -4.8361 6.8796
60 1 0 7.35455 -5.33465 6.6143
61 1 0 9.7422 -5.47755 6.44755
62 1 0 10.9187 -4.76865 6.8667
63 1 0 -11.2363 -4.03585 6.76215
64 1 0 -9.94705 -3.7259 6.73
65 1 0 -6.72715 -3.74215 6.59615
66 1 0 6.79165 -3.8488 7.1388
67 1 0 8.378 -4.2612 6.57175
68 1 0 10.9095 -3.4362 6.982
69 1 0 -10.8582 -2.77055 6.9971
70 1 0 -8.7554 -2.5175 7.0423
71 1 0 -7.2782 -2.73165 6.9911
72 1 0 7.70925 -3.00075 6.42365
73 1 0 10.0081 -2.64015 6.285
74 1 0 -11.2626 -1.0025 7.2541
75 1 0 -9.89575 -1.37915 6.6093
76 1 0 -7.92765 -1.3771 6.59065
77 1 0 8.6352 -1.7154 7.18765
78 1 0 8.5955 -0.850851 6.1993
79 1 0 10.3646 -1.33755 6.2015
80 1 0 9.6985 -0.67205 7.1583
81 1 0 11.8679 -1.5119 6.62105
82 1 0 -11.4024 0.157049 7.265
83 1 0 -8.96845 -0.30105 7.0576
84 1 0 -7.54875 0.459702 6.6653
85 1 0 7.36645 -0.534 6.304
86 1 0 8.53895 0.412899 7.0304
87 1 0 -11.186 0.858799 6.19375
88 1 0 -10.0411 1.72535 6.77425
89 1 0 -8.99845 0.817251 6.4018
90 1 0 7.25825 0.812101 6.2801
91 1 0 8.23475 1.5053 6.31215
92 1 0 9.46875 1.08375 6.50125
93 1 0 11.4745 1.7337 6.22085
94 1 0 10.5902 0.631401 6.8939
95 1 0 -11.1524 2.91495 6.5816
96 1 0 -8.7855 2.19195 6.5861
97 1 0 -7.4515 2.2772 7.1144
98 1 0 6.39525 2.9371 6.4083
99 1 0 7.9659 2.7891 7.1893
100 1 0 9.2073 2.48865 6.76805
101 1 0 -9.78695 3.1447 7.25305
102 1 0 -8.62795 3.4984 6.53945
103 1 0 -6.2825 3.5151 6.4135
104 1 0 7.2551 3.91735 6.57435
105 1 0 9.92815 3.5518 6.2863
106 1 0 11.0238 3.10195 6.23825
107 1 0 -10.2083 5.07655 6.7613
108 1 0 -8.3544 5.1663 6.79565
109 1 0 -6.8842 5.07925 6.56495
110 1 0 -5.2611 4.7938 6.481
111 1 0 6.02925 4.4749 6.33725
112 1 0 7.6403 5.19395 6.25945
113 1 0 9.3489 4.58845 6.5516
114 1 0 10.8457 5.0399 6.68505
115 1 0 -9.2619 6.1561 6.3225
116 1 0 -7.8686 6.4875 6.21375
117 1 0 -6.50995 6.61435 6.4065
118 1 0 -4.794 6.25765 6.5488
119 1 0 4.113 6.5064 7.05295
120 1 0 5.3559 6.32595 6.7814
121 1 0 6.5414 5.79185 6.6269
122 1 0 7.8201 6.4085 7.0002
123 1 0 9.64865 6.0117 6.72315
124 1 0 -2.6456 7.0459 6.72795
125 1 0 -0.49445 7.7813 6.63985
126 1 0 0.7269 7.3696 6.85465
127 1 0 2.64395 7.8508 6.4479
128 1 0 5.73695 7.39295 6.2982
129 1 0 6.85935 7.0608 6.26495
130 1 0 8.67345 7.24735 6.17865
131 1 0 -7.70875 8.4583 7.16585
132 1 0 -5.59065 7.94535 6.5261
133 1 0 -4.8572 8.97105 7.27645
134 1 0 -3.7336 7.93685 6.7047
135 1 0 -1.68275 8.734 7.0696
136 1 0 3.92055 8.0644 6.37675
137 1 0 5.2692 8.5062 6.1658
138 1 0 6.42945 8.5286 6.81215
139 1 0 7.64135 8.05715 6.7677
140 1 0 -6.57975 9.76625 6.9021
141 1 0 -3.7191 9.2271 6.4998
142 1 0 -2.41775 10.0754 6.355
143 1 0 -1.05495 9.9567 7.1815
144 1 0 0.311449 9.70445 7.1646
145 1 0 2.4191 9.6415 6.7305
146 1 0 3.82615 9.5723 6.35055
147 1 0 5.17645 9.8424 6.56835
148 1 0 6.5616 9.95145 6.7128
149 1 0 -4.9745 10.8113 6.22405
150 1 0 -4.01755 11.0686 7.23905
151 1 0 -1.10655 11.4172 6.7909
152 1 0 1.1842 10.7648 6.65805
153 1 0 3.81485 10.8647 6.98065
154 1 0 0.132099 12.05 6.5326
155 1 0 -4.73775 -10.6356 8.17055
156 1 0 -3.4908 -11.1869 7.36205
157 1 0 -2.6833 -10.6231 8.2645
158 1 0 0.4839 -10.7785 8.415
159 1 0 -0.0629501 -11.4937 7.5002
160 1 0 1.5138 -11.5222 7.5787
161 1 0 4.55345 -10.5142 7.39365
162 1 0 -6.5895 -9.2345 8.27525
163 1 0 -5.48335 -9.5617 7.50995
164 1 0 -4.5017 -9.35515 8.48635
165 1 0 -4.15655 -9.60025 7.3301
166 1 0 -2.19875 -9.20785 8.4097
167 1 0 -1.26055 -10.079 8.5309
168 1 0 2.0563 -9.99995 7.7747
169 1 0 3.57425 -10.2394 8.12035
170 1 0 5.60265 -9.6772 7.35905
171 1 0 -8.06105 -8.8618 8.2136
172 1 0 -5.34805 -8.3849 8.0112
173 1 0 -3.28305 -8.73745 8.0534
174 1 0 -0.43355 -9.07325 8.1594
175 1 0 0.760048 -8.48085 7.6889
176 1 0 2.31285 -8.51305 8.4423
177 1 0 3.61165 -8.7907 8.3305
178 1 0 5.5636 -9.00085 8.4586
179 1 0 6.6248 -8.4042 8.4992
180 1 0 7.8532 -8.70595 7.9923
181 1 0 -7.59155 -7.7836 7.8525
182 1 0 -6.3663 -7.4176 7.86175
183 1 0 -5.4536 -6.7428 8.072
184 1 0 -3.8269 -7.47805 7.74315
185 1 0 -1.49515 -7.85415 8.29205
186 1 0 -0.224649 -7.5618 7.53575
187 1 0 1.82125 -7.9164 7.4006
188 1 0 5.0334 -7.77035 8.2864
189 1 0 8.1373 -7.3133 7.3544
190 1 0 9.39185 -6.978 7.82405
191 1 0 -7.6262 -6.46795 8.0794
192 1 0 -5.5783 -5.5472 7.4462
193 1 0 -3.39015 -6.2212 7.979
194 1 0 3.19725 -6.6756 8.27855
195 1 0 4.61985 -5.5317 8.34665
196 1 0 5.77885 -6.5482 8.26645
197 1 0 7.1253 -6.4171 7.96535
198 1 0 8.28855 -5.74795 7.93275
199 1 0 10.286 -5.7666 8.05845
200 1 0 -9.21805 -4.88145 7.5039
201 1 0 -10.3274 -5.19245 8.31565
202 1 0 -8.36005 -5.2822 8.28695
203 1 0 -7.10775 -5.42975 7.8865
204 1 0 5.81435 -4.7363 7.6908
205 1 0 8.52135 -4.3423 7.8784
206 1 0 10.0167 -4.628 7.8199
207 1 0 -9.9436 -3.571 8.19995
208 1 0 -8.69115 -3.6995 7.6088
209 1 0 -7.37885 -3.856 7.962
210 1 0 -5.98955 -4.2329 7.41815
211 1 0 7.53565 -3.08505 8.1012
212 1 0 -10.9454 -2.5103 8.4003
213 1 0 -10.0578 -1.924 7.7399
214 1 0 -6.6901 -2.58165 8.3638
215 1 0 7.09965 -2.15245 7.31815
216 1 0 9.40485 -2.83785 7.55395
217 1 0 11.461 -2.2152 7.7298
218 1 0 -8.8326 -1.36345 7.8009
219 1 0 -7.09605 -1.36595 7.63685
220 1 0 10.0601 -1.774 7.5425
221 1 0 11.3444 -0.6145 7.32035
222 1 0 -10.1084 -0.31535 7.9754
223 1 0 -7.612 -0.2239 7.853
224 1 0 6.9926 -0.608801 8.22815
225 1 0 8.25975 -0.361151 7.8961
226 1 0 10.3136 -0.339149 8.17735
227 1 0 -11.1832 1.8257 7.3859
228 1 0 -9.1914 0.79965 7.8457
229 1 0 -7.89615 1.2628 7.74155
230 1 0 7.0262 1.7609 7.64665
231 1 0 8.8942 1.74085 7.73895
232 1 0 9.4308 0.636398 8.0558
233 1 0 10.9576 0.8722 8.1939
234 1 0 -10.0948 2.46155 8.48505
235 1 0 -8.9576 2.2385 8.034
236 1 0 6.60935 2.73105 8.31605
237 1 0 10.0355 2.6572 7.6675
238 1 0 11.1729 1.84585 7.4298
239 1 0 -10.8047 3.80375 8.3684
240 1 0 -8.596 3.9912 7.7553
241 1 0 -7.3269 3.4431 7.65265
242 1 0 7.62695 3.7394 7.83225
243 1 0 10.0368 3.91415 7.6603
244 1 0 11.5069 3.103 7.8389
245 1 0 -9.8757 4.37815 7.8583
246 1 0 -7.6653 5.1418 7.84095
247 1 0 -6.7639 4.3967 8.38245
248 1 0 -5.35195 4.8654 7.9861
249 1 0 4.88195 5.1489 7.446
250 1 0 6.1839 4.46175 7.67945
251 1 0 7.54945 5.03 8.15345
252 1 0 8.6631 4.31105 7.91225
253 1 0 9.75765 5.1542 7.76115
254 1 0 -9.20665 5.63775 7.8023
255 1 0 -8.2139 6.46735 7.5176
256 1 0 -6.92045 6.51725 7.7315
257 1 0 -5.91765 5.89755 7.36705
258 1 0 3.95975 5.8324 8.2713
259 1 0 8.5367 5.54785 7.4227
260 1 0 8.2924 6.38085 8.46615
261 1 0 -8.26625 7.6818 7.92745
262 1 0 -6.5742 7.68055 7.487
263 1 0 -4.13475 6.94995 7.48045
264 1 0 -4.18465 7.82305 8.48475
265 1 0 -2.91425 7.57005 7.884
266 1 0 -1.00895 7.4542 7.84325
267 1 0 1.43805 7.4056 8.033
268 1 0 2.71655 7.5093 8.4942
269 1 0 4.1906 7.88135 7.81535
270 1 0 5.0997 6.94415 8.1452
271 1 0 6.42025 6.7237 7.79695
272 1 0 7.4317 7.59745 8.1983
273 1 0 8.72515 7.65305 7.51935
274 1 0 9.6096 7.12155 8.3106
275 1 0 -6.81165 9.02575 7.835
276 1 0 -5.365 8.0269 7.85025
277 1 0 -3.9303 9.08655 8.36065
278 1 0 -1.9261 7.9399 8.46145
279 1 0 -0.971199 8.8601 8.3433
280 1 0 0.0972004 8.40615 7.7964
281 1 0 1.52055 8.58185 7.3454
282 1 0 2.7789 8.70245 7.8979
283 1 0 5.53725 8.19925 7.8821
284 1 0 -5.3486 10.273 7.3359
285 1 0 -4.6634 10.2776 8.4311
286 1 0 -2.78395 9.562 7.64045
287 1 0 -1.92675 10.2549 8.4505
288 1 0 1.5344 9.89895 7.92475
289 1 0 3.78635 9.2491 8.3149
290 1 0 4.77975 9.32355 7.6175
291 1 0 5.55145 9.9375 8.53455
292 1 0 6.9375 9.5778 7.9537
293 1 0 -2.35485 10.8892 7.3239
294 1 0 -0.150549 11.0396 7.49345
295 1 0 1.0198 11.4992 7.8528
296 1 0 2.4687 10.9424 7.33405
297 1 0 3.4344 10.6685 8.3775
298 1 0 -3.19745 11.694 8.09985
299 1 0 -1.3425 -11.7914 9.4404
300 1 0 -2.8283 -11.5605 9.33555
301 1 0 -0.530901 -11.0428 8.94425
302 1 0 2.50025 -11.3298 8.6751
303 1 0 1.8615 -10.4982 9.7512
304 1 0 3.82715 -11.272 9.29825
305 1 0 5.0544 -10.5744 9.4336
306 1 0 -6.6067 -9.23205 9.4985
307 1 0 -4.58225 -9.9141 9.62635
308 1 0 -3.6045 -10.3065 9.24525
309 1 0 -2.1519 -10.297 9.46225
310 1 0 1.0702 -9.42885 8.80725
311 1 0 2.366 -9.72275 8.98635
312 1 0 3.78565 -9.7368 9.2231
313 1 0 6.26245 -9.47505 9.69045
314 1 0 -5.8702 -8.0012 8.95245
315 1 0 -3.8014 -8.6066 9.28385
316 1 0 -2.35335 -8.30275 9.37095
317 1 0 -1.14335 -9.11925 9.40835
318 1 0 -0.360451 -8.04865 9.03875
319 1 0 0.610552 -8.3697 9.6701
320 1 0 3.4555 -8.4242 9.4961
321 1 0 5.0225 -8.84155 9.5724
322 1 0 7.34215 -8.55165 9.5924
323 1 0 -8.7162 -6.73285 8.8908
324 1 0 -7.30535 -7.8467 9.0685
325 1 0 -4.52875 -7.42265 8.71405
326 1 0 -3.30705 -7.40565 8.939
327 1 0 -1.1328 -6.9285 9.35255
328 1 0 1.12915 -7.6621 8.7541
329 1 0 1.97795 -6.86775 8.71225
330 1 0 4.22015 -7.31535 9.29485
331 1 0 5.91675 -7.8752 9.56165
332 1 0 7.0834 -7.27465 8.8419
333 1 0 8.44345 -7.4172 8.9314
334 1 0 -8.7042 -5.68775 9.6107
335 1 0 -7.3332 -6.60785 9.6258
336 1 0 -6.316 -6.3291 8.8608
337 1 0 -4.73295 -5.84455 8.54565
338 1 0 -2.4772 -6.68125 9.59665
339 1 0 3.0694 -6.4973 9.61555
340 1 0 5.20155 -6.5253 9.6003
341 1 0 6.66965 -6.20835 9.3914
342 1 0 8.06025 -6.1112 9.6999
343 1 0 9.43 -6.4026 8.98305
344 1 0 -10.0692 -5.3438 9.6947
345 1 0 -9.3325 -4.38485 9.19085
346 1 0 -7.70165 -4.5821 9.0434
347 1 0 -6.30965 -4.8343 8.8944
348 1 0 5.7382 -4.9996 8.9031
349 1 0 7.61865 -5.1367 8.8037
350 1 0 8.44295 -4.29925 9.1981
351 1 0 -10.957 -3.8257 9.6373
352 1 0 -8.0565 -3.2374 8.91915
353 1 0 6.8796 -4.12585 8.646
354 1 0 7.22095 -3.087 9.41105
355 1 0 8.54405 -3.137 9.60535
356 1 0 9.5167 -3.7498 8.8149
357 1 0 10.9441 -3.13405 8.65765
358 1 0 10.7414 -4.25815 9.55265
359 1 0 -11.8505 -2.34385 9.1413
360 1 0 -9.20185 -2.6299 8.7879
361 1 0 -7.38235 -2.1492 9.7255
362 1 0 7.2638 -1.85025 9.07885
363 1 0 8.3986 -2.36045 8.572
364 1 0 9.76745 -2.3365 9.20685
365 1 0 -11.3372 -0.705151 8.9032
366 1 0 -10.5534 -1.5695 9.5414
367 1 0 -9.5981 -0.9412 9.05685
368 1 0 -7.98855 -1.7711 8.692
369 1 0 -6.85485 -0.943201 8.97925
370 1 0 7.81645 -0.825748 9.65605
371 1 0 9.21085 -1.24435 8.66165
372 1 0 11.319 -1.4513 8.80185
373 1 0 -11.8913 0.538052 8.7605
374 1 0 -8.47705 -0.381451 8.8993
375 1 0 -7.9431 0.589651 9.5942
376 1 0 7.34725 0.395752 9.17715
377 1 0 8.7831 0.0482502 9.1987
378 1 0 10.7727 -0.0879002 9.389
379 1 0 -10.5629 1.06845 8.53845
380 1 0 -11.5056 1.60005 9.2924
381 1 0 -9.28185 0.91555 8.9819
382 1 0 -7.1584 1.28375 8.7985
383 1 0 8.1613 1.15225 8.59355
384 1 0 9.5839 0.783501 9.5764
385 1 0 -8.6862 2.21005 9.50285
386 1 0 -7.70035 2.4946 8.5423
387 1 0 7.7164 3.0227 9.69865
388 1 0 8.06685 2.5244 8.6516
389 1 0 9.39285 2.11825 8.8109
390 1 0 10.6176 2.5079 9.15635
391 1 0 11.9044 1.9908 8.67375
392 1 0 -11.4388 3.1035 9.1038
393 1 0 -9.6784 3.4482 9.7487
394 1 0 -9.12655 3.7498 8.8397
395 1 0 -6.79235 4.23185 9.61325
396 1 0 -5.5959 3.94735 9.10725
397 1 0 7.16225 3.95795 8.96445
398 1 0 8.4873 3.9726 9.43475
399 1 0 9.7566 3.3255 9.35085
400 1 0 11.0974 3.9582 8.82205
401 1 0 -10.5556 5.29945 9.06575
402 1 0 -9.2247 4.9192 9.6564
403 1 0 -8.0213 4.4527 8.92505
404 1 0 5.07585 5.3503 8.79545
405 1 0 6.5872 5.40945 8.56695
406 1 0 6.95685 5.0715 9.7051
407 1 0 9.38895 4.57625 9.10685
408 1 0 10.6732 5.21665 9.00445
409 1 0 -9.42565 6.15695 8.9625
410 1 0 -8.05185 5.8343 8.82345
411 1 0 -6.5154 5.83865 8.6988
412 1 0 -4.52965 6.25005 8.579
413 1 0 -3.31475 6.3997 9.2097
414 1 0 6.3176 6.4912 9.1599
415 1 0 8.29655 5.6276 9.5259
416 1 0 9.64655 6.0945 9.16175
417 1 0 -9.18925 7.6277 8.94375
418 1 0 -7.81565 7.1827 9.00795
419 1 0 -5.7864 6.75475 8.758
420 1 0 -4.7318 7.1557 9.59235
421 1 0 -2.9712 7.8187 9.259
422 1 0 1.8107 7.08685 9.2366
423 1 0 3.9164 6.92205 9.0596
424 1 0 5.2737 7.0538 9.66755
425 1 0 7.79355 6.96295 9.5981
426 1 0 -7.11535 8.35055 9.5707
427 1 0 -6.0466 7.93075 8.96415
428 1 0 -3.629 8.9367 9.4798
429 1 0 -2.4669 9.0843 9.19465
430 1 0 -1.383 8.46585 9.5021
431 1 0 1.0422 8.5202 9.19415
432 1 0 3.71135 8.2776 9.22565
433 1 0 4.74405 9.03985 9.29945
434 1 0 6.5728 8.009 8.8839
435 1 0 8.6259 7.9416 8.9965
436 1 0 -6.43935 9.39515 9.1053
437 1 0 -5.09345 9.5368 9.44655
438 1 0 -1.13975 9.7969 9.2311
439 1 0 0.304949 9.71755 8.7447
440 1 0 1.49255 9.9395 9.44545
441 1 0 2.7099 9.67005 9.1639
442 1 0 6.57295 9.27825 9.3479
443 1 0 7.80565 9.2604 9.47745
444 1 0 -3.4462 10.5391 9.0582
445 1 0 -0.400049 10.9964 8.78415
446 1 0 0.859499 11.2813 9.19485
447 1 0 -2.19955 11.6836 9.11065
448 1 0 2.7401 11.6253 9.03965
449 1 0 -3.77295 -10.8744 10.493
450 1 0 -2.41385 -11.1349 10.4718
451 1 0 -0.434349 -10.5393 10.3252
452 1 0 0.631899 -11.2793 10.0943
453 1 0 2.87395 -11.3287 10.2542
454 1 0 -7.6473 -9.1658 10.6165
455 1 0 -5.89935 -10.1278 10.0769
456 1 0 -2.0852 -9.5531 10.5484
457 1 0 -0.88455 -9.289 10.773
458 1 0 0.444149 -9.68 9.96335
459 1 0 2.48405 -9.9263 10.6514
460 1 0 3.8772 -10.2996 10.4279
461 1 0 5.5128 -9.42155 10.9003
462 1 0 -6.22045 -8.98825 10.9002
463 1 0 -4.90475 -8.926 10.3579
464 1 0 -3.20625 -8.9291 10.5534
465 1 0 -2.10625 -8.1166 10.5696
466 1 0 0.951651 -8.4066 10.7857
467 1 0 1.94225 -8.3599 9.80175
468 1 0 3.2512 -9.104 10.9752
469 1 0 4.36415 -8.86215 10.6621
470 1 0 8.07985 -7.9965 10.5097
471 1 0 -9.78785 -6.9462 10.1109
472 1 0 -8.47795 -7.1694 10.1242
473 1 0 -7.06245 -7.7503 10.3356
474 1 0 -5.7218 -7.86985 10.0543
475 1 0 -4.05525 -7.66565 10.0998
476 1 0 -0.70965 -7.88555 10.4492
477 1 0 -1.68695 -7.00875 10.9319
478 1 0 1.43955 -6.96965 10.2525
479 1 0 2.94135 -7.91005 10.3577
480 1 0 4.26045 -6.82375 10.8915
481 1 0 5.14075 -7.82585 10.6531
482 1 0 6.97285 -7.25445 10.4938
483 1 0 9.0965 -7.054 10.2229
484 1 0 -8.13325 -5.59745 10.8538
485 1 0 -6.6725 -6.15705 10.4802
486 1 0 -5.50715 -6.62165 10.1912
487 1 0 -4.1965 -6.6205 10.6605
488 1 0 6.74365 -6.1668 10.8997
489 1 0 9.50095 -5.49845 9.879
490 1 0 -9.12605 -4.84185 10.582
491 1 0 -7.12045 -5.0727 10.1475
492 1 0 -5.71795 -5.111 10.8778
493 1 0 -5.19045 -5.46345 9.75885
494 1 0 5.90875 -5.3017 10.1319
495 1 0 7.56465 -5.1837 10.3427
496 1 0 8.4554 -4.44205 10.8511
497 1 0 10.8049 -5.42385 10.1488
498 1 0 -10.7513 -4.05985 10.93
499 1 0 -8.71695 -3.557 10.8515
500 1 0 -8.0539 -3.96645 10.0043
501 1 0 -6.51065 -3.94105 10.1364
502 1 0 6.69945 -4.2631 9.9732
503 1 0 9.63925 -4.10095 10.5681
504 1 0 10.5528 -3.1326 10.1119
505 1 0 -11.7779 -2.25715 10.7144
506 1 0 -10.4732 -2.06485 10.6104
507 1 0 -9.5011 -2.99505 9.84775
508 1 0 -8.85855 -2.0273 10.6432
509 1 0 -7.67425 -2.8252 10.6589
510 1 0 6.7329 -2.30115 10.6733
511 1 0 8.15475 -2.1523 10.4487
512 1 0 -11.4258 -0.915951 10.6456
513 1 0 -9.4951 -0.882999 10.7739
514 1 0 -8.1902 -0.659101 9.9908
515 1 0 7.2419 -1.18235 10.7168
516 1 0 9.33455 -1.4667 10.1345
517 1 0 10.8442 -1.4201 9.99045
518 1 0 -11.9197 0.212202 10.056
519 1 0 -10.1943 0.0602989 9.87985
520 1 0 8.81115 -0.398149 10.5941
521 1 0 -10.4361 1.14815 10.5681
522 1 0 -8.74835 1.2314 10.4629
523 1 0 -7.1423 1.736 10.8457
524 1 0 7.9491 0.644249 10.2766
525 1 0 8.55035 1.7769 10.0272
526 1 0 10.5951 1.22195 10.1178
527 1 0 -10.6498 2.8498 10.2322
528 1 0 -9.9319 1.8353 9.8047
529 1 0 -9.14365 2.527 10.7744
530 1 0 -7.34365 2.51925 9.87505
531 1 0 6.9375 2.05225 9.88095
532 1 0 8.97735 2.79095 10.3658
533 1 0 10.6195 2.39245 10.562
534 1 0 11.7919 2.30795 9.8382
535 1 0 -8.087 3.6288 9.7805
536 1 0 -7.08015 3.9475 10.861
537 1 0 7.90625 3.478 10.8729
538 1 0 6.7631 3.8984 10.1662
539 1 0 11.028 3.63955 10.3147
540 1 0 -10.9953 4.34845 9.9898
541 1 0 -10.0161 5.20905 10.731
542 1 0 -8.47995 4.76865 10.8533
543 1 0 -7.3156 5.41765 9.88325
544 1 0 -5.69075 5.0943 9.96185
545 1 0 6.3568 5.04785 10.7254
546 1 0 9.0297 4.3906 10.5304
547 1 0 10.3147 5.2374 10.3142
548 1 0 -9.64735 6.3526 10.1696
549 1 0 -8.229 6.46225 9.8876
550 1 0 -5.8475 6.4751 10.2521
551 1 0 -4.4293 6.5093 10.8412
552 1 0 3.0141 6.5332 10.1818
553 1 0 5.08945 5.507 10.0227
554 1 0 6.44345 6.40385 10.3509
555 1 0 7.8623 5.7506 10.6999
556 1 0 10.0399 6.5632 10.7093
557 1 0 -7.61795 7.46455 10.822
558 1 0 -5.4756 7.59995 10.771
559 1 0 -3.8157 7.8526 10.5955
560 1 0 -2.6747 6.9114 10.1222
561 1 0 -2.35585 7.74415 10.9149
562 1 0 -1.13585 7.1098 9.94495
563 1 0 1.6846 7.2908 10.4763
564 1 0 4.06415 7.4498 10.283
565 1 0 7.92235 6.9304 10.9484
566 1 0 9.20055 7.0245 9.8453
567 1 0 -8.3753 8.24805 9.88345
568 1 0 -6.3527 8.39325 10.8138
569 1 0 -4.73655 8.54875 10.1486
570 1 0 -2.3646 8.8903 10.9104
571 1 0 -1.11505 8.3628 10.7281
572 1 0 0.440248 9.11705 10.8042
573 1 0 0.224051 8.0005 9.93655
574 1 0 2.9057 8.12225 10.4276
575 1 0 5.6097 8.36255 9.90325
576 1 0 6.9109 8.21045 10.132
577 1 0 8.2203 8.48895 10.5981
578 1 0 -7.41835 9.28 10.8591
579 1 0 -5.73555 10.1988 10.1961
580 1 0 -3.7361 9.8536 10.3098
581 1 0 -2.43845 10.2673 9.9114
582 1 0 -1.5588 9.7843 10.5803
583 1 0 -0.395151 9.26065 10.0064
584 1 0 2.18475 9.1978 10.2356
585 1 0 3.76735 10.2019 9.8651
586 1 0 3.3496 9.38075 10.9109
587 1 0 4.6648 9.3924 10.7206
588 1 0 -3.1041 11.4069 10.4489
589 1 0 -1.02425 10.9551 9.86475
590 1 0 0.238249 10.4654 10.0198
591 1 0 1.1386 10.798 10.8474
592 1 0 4.911 10.8618 9.81
593 1 0 0.4839 12.0604 10.4492
594 1 0 2.12275 11.7178 10.146
595 1 0 -5.6341 -10.5986 11.2746
596 1 0 -3.4459 -11.5318 11.8389
597 1 0 -1.81235 -10.3794 11.325
598 1 0 -1.4019 -11.5757 11.4959
599 1 0 0.189199 -11.083 11.4007
600 1 0 1.9858 -11.1205 11.3024
601 1 0 3.4116 -11.0689 11.707
602 1 0 -6.08535 -9.31525 12.0715
603 1 0 -4.08205 -9.8612 11.2425
604 1 0 -3.03135 -10.052 11.8771
605 1 0 -0.91185 -10.0944 12.159
606 1 0 1.16375 -9.86895 11.0206
607 1 0 0.780149 -10.0544 12.1441
608 1 0 3.7347 -9.63285 12.1722
609 1 0 4.7254 -10.2628 11.8627
610 1 0 6.2519 -10.1102 11.6936
611 1 0 -7.65415 -9.00555 12.0459
612 1 0 -4.2629 -8.3701 11.323
613 1 0 -1.7257 -8.62855 12.1389
614 1 0 -0.247601 -8.993 11.9314
615 1 0 2.02275 -8.7524 11.3893
616 1 0 3.06765 -8.08075 12.0743
617 1 0 4.4313 -8.50655 11.8259
618 1 0 6.65615 -8.5592 11.1317
619 1 0 8.1051 -8.1011 11.8391
620 1 0 -8.1277 -7.6612 11.2584
621 1 0 -7.53685 -6.78235 11.7424
622 1 0 -6.6088 -7.7072 11.507
623 1 0 -5.16245 -7.5919 11.196
624 1 0 -2.56725 -7.8819 11.7262
625 1 0 -1.0186 -7.0217 11.9008
626 1 0 0.366449 -7.47135 11.5567
627 1 0 1.7305 -7.44655 11.4417
628 1 0 3.0362 -6.854 10.9813
629 1 0 5.9121 -7.1024 11.4757
630 1 0 9.52215 -6.7522 11.8092
631 1 0 -9.89105 -5.4908 11.627
632 1 0 -9.05595 -6.52385 11.4194
633 1 0 -6.15605 -6.33305 11.7687
634 1 0 -4.95155 -6.46605 11.773
635 1 0 -3.06365 -6.4678 11.1122
636 1 0 5.27855 -6.10105 11.0097
637 1 0 6.3313 -6.063 12.1523
638 1 0 8.07845 -6.56295 11.0564
639 1 0 -8.19715 -4.62885 11.8328
640 1 0 -7.02095 -5.3382 11.4762
641 1 0 -5.7461 -4.4345 11.9652
642 1 0 4.3646 -5.26585 10.9901
643 1 0 7.1514 -4.8838 11.5405
644 1 0 8.9601 -5.47445 11.59
645 1 0 10.1285 -4.96255 11.3901
646 1 0 -11.3861 -3.5332 12.0589
647 1 0 -9.56255 -4.14315 11.591
648 1 0 -8.68505 -3.3212 12.169
649 1 0 -7.32325 -3.4939 11.6301
650 1 0 6.0286 -3.9894 11.0394
651 1 0 7.16945 -3.3649 11.0392
652 1 0 8.6564 -3.0921 10.9865
653 1 0 10.7682 -3.8039 12.0347
654 1 0 -10.9946 -2.34925 12.0234
655 1 0 -9.78825 -2.77725 11.2215
656 1 0 -7.1328 -2.0933 11.7228
657 1 0 7.76795 -2.82865 11.8061
658 1 0 10.1823 -1.95725 11.8537
659 1 0 9.9339 -2.9251 11.057
660 1 0 11.2534 -2.62985 11.265
661 1 0 -9.8679 -1.6357 11.9044
662 1 0 -8.64605 -1.3598 11.9608
663 1 0 -7.8571 -1.21615 10.9972
664 1 0 6.7285 -1.6306 12.0496
665 1 0 8.73205 -1.5952 11.6283
666 1 0 9.81805 -0.713449 11.2984
667 1 0 11.0814 -1.12445 11.3839
668 1 0 -11.2034 -0.4928 11.7843
669 1 0 -10.3353 0.450451 11.635
670 1 0 -9.13705 0.237251 11.0407
671 1 0 -7.784 0.0351486 12.1173
672 1 0 7.64055 -0.240049 11.5323
673 1 0 9.03705 0.365252 11.4543
674 1 0 10.5942 0.269402 10.9809
675 1 0 -11.6559 1.0734 10.994
676 1 0 -7.8445 0.6138 11.0908
677 1 0 6.9293 1.5872 11.2345
678 1 0 8.27065 1.36425 11.4423
679 1 0 11.2479 1.4279 11.3224
680 1 0 -10.5584 1.83525 11.6098
681 1 0 -9.1289 2.54325 11.9268
682 1 0 -7.9451 2.9206 11.2183
683 1 0 -7.01415 2.1701 11.9673
684 1 0 6.34625 2.9086 11.0674
685 1 0 7.3941 2.95505 12.0202
686 1 0 8.7402 2.56695 12.1251
687 1 0 9.4713 1.85595 11.2255
688 1 0 10.8681 2.8949 11.7132
689 1 0 -11.4227 3.1217 11.9293
690 1 0 -10.2863 3.8173 11.2618
691 1 0 -9.11815 3.96595 11.5304
692 1 0 6.278 3.97645 12.0507
693 1 0 8.94865 3.85805 12.024
694 1 0 9.76935 3.2524 11.018
695 1 0 -10.8701 4.91195 11.7266
696 1 0 -7.68115 4.8429 11.8266
697 1 0 -5.9856 4.29225 11.5413
698 1 0 -5.06155 5.48095 11.1589
699 1 0 7.64145 4.5934 11.1231
700 1 0 10.2442 4.335 11.4692
701 1 0 9.2462 5.31075 11.3683
702 1 0 -9.2649 5.55015 11.8777
703 1 0 -8.8263 6.5814 11.0153
704 1 0 -8.45115 6.5873 12.0243
705 1 0 -7.3114 6.01405 11.029
706 1 0 -6.1972 5.69525 11.6224
707 1 0 -2.2242 6.47895 11.2691
708 1 0 3.08225 6.312 11.7078
709 1 0 4.24915 6.03395 11.7002
710 1 0 5.4583 5.5948 11.419
711 1 0 6.6775 5.89295 11.6927
712 1 0 -6.5316 7.16125 11.5912
713 1 0 -4.0459 7.0931 11.7833
714 1 0 -1.232 7.32475 12.1262
715 1 0 -0.3661 7.21005 11.0991
716 1 0 1.68845 6.9859 11.8314
717 1 0 2.80135 7.67765 11.6453
718 1 0 4.13605 7.33415 11.8638
719 1 0 5.35485 6.9498 11.1274
720 1 0 5.9021 7.67305 11.9221
721 1 0 6.9625 7.6786 11.1551
722 1 0 9.0305 7.4963 11.385
723 1 0 -8.11315 8.6511 11.7266
724 1 0 -4.9629 8.4686 11.7845
725 1 0 -3.60905 8.1293 11.7472
726 1 0 -0.36865 8.50115 11.9163
727 1 0 0.82325 8.01115 11.3141
728 1 0 2.27095 8.9797 11.6806
729 1 0 4.8306 8.22465 11.1072
730 1 0 -6.2966 9.6714 11.2529
731 1 0 -5.012 10.1068 11.3384
732 1 0 -3.70485 9.46925 11.4494
733 1 0 -1.23325 9.43175 11.7604
734 1 0 0.0416489 10.1962 11.4272
735 1 0 1.2815 9.65255 11.7049
736 1 0 2.1793 10.2314 11.0091
737 1 0 3.3695 9.5746 12.0729
738 1 0 5.2413 9.38295 11.9025
739 1 0 6.22115 9.3523 11.0093
740 1 0 7.4562 9.4629 11.038
741 1 0 -4.12 11.1105 11.4369
742 1 0 -2.797 10.436 11.3302
743 1 0 -0.7157 11.4303 11.0582
744 1 0 -1.5997 10.6701 11.7612
745 1 0 0.89765 11.3355 11.9932
746 1 0 2.6998 11.431 11.212
747 1 0 4.12285 10.7651 11.2512
748 1 0 5.6174 10.7044 11.0681
749 1 0 -4.50275 -11.2286 12.336
750 1 0 -2.3562 -11.2738 12.4469
751 1 0 -0.362101 -11.3821 12.3684
752 1 0 0.94825 -11.4991 12.6995
753 1 0 2.48515 -10.5475 12.402
754 1 0 4.32795 -10.6281 13.0046
755 1 0 -5.0544 -10.0906 12.3261
756 1 0 -4.21865 -9.8515 13.2803
757 1 0 -2.71035 -10.2234 13.145
758 1 0 -1.50495 -9.4244 13.0896
759 1 0 -0.1476 -9.6323 13.3441
760 1 0 2.4078 -9.2511 12.6751
761 1 0 5.62855 -9.81855 13.2126
762 1 0 -6.772 -9.13105 13.1537
763 1 0 -4.8338 -8.6541 12.4844
764 1 0 -3.3831 -8.70595 12.2527
765 1 0 -2.6973 -8.8426 13.363
766 1 0 0.90155 -8.58395 12.5825
767 1 0 2.1886 -7.988 13.3284
768 1 0 3.79465 -8.2763 13.289
769 1 0 5.2057 -8.4181 13.0096
770 1 0 5.80645 -9.0549 12.2334
771 1 0 7.70315 -7.97955 12.9445
772 1 0 -9.3665 -7.39725 12.5004
773 1 0 -7.45855 -7.71975 12.6866
774 1 0 -5.9672 -7.91355 12.5918
775 1 0 -6.4397 -6.98615 13.3962
776 1 0 -4.88045 -7.12765 13.0995
777 1 0 -3.936 -7.57975 12.463
778 1 0 -1.9506 -7.3963 13.1133
779 1 0 -0.442999 -7.78425 12.7176
780 1 0 0.644451 -7.5858 13.3482
781 1 0 2.31265 -7.00495 12.4577
782 1 0 3.9941 -7.3143 12.2765
783 1 0 5.3963 -7.1148 12.7478
784 1 0 6.489 -7.90325 12.3987
785 1 0 6.89585 -6.84735 12.8883
786 1 0 8.3099 -6.73365 12.5304
787 1 0 -9.98 -5.7984 13.1459
788 1 0 -8.48875 -6.59575 13.0662
789 1 0 -7.53405 -5.93515 12.6628
790 1 0 -6.49295 -5.7007 13.1507
791 1 0 -3.84575 -5.95535 12.2026
792 1 0 -2.531 -6.6239 12.2144
793 1 0 3.75945 -5.96465 12.3253
794 1 0 4.457 -6.29795 13.2301
795 1 0 9.0385 -6.2689 13.3245
796 1 0 10.4272 -5.51335 12.536
797 1 0 -10.454 -4.60205 12.7437
798 1 0 -8.72525 -5.36025 12.8031
799 1 0 -7.354 -4.79045 13.371
800 1 0 -5.10965 -5.3028 12.4251
801 1 0 5.1265 -5.25385 12.2097
802 1 0 6.43175 -4.49725 12.4084
803 1 0 7.75835 -5.3278 12.8118
804 1 0 8.63165 -4.43185 12.2125
805 1 0 9.2606 -5.0031 13.1078
806 1 0 10.6049 -4.45405 13.1681
807 1 0 -11.3777 -3.1113 13.2773
808 1 0 -9.45835 -4.0015 13.242
809 1 0 -7.77255 -3.489 13.1023
810 1 0 -6.66395 -3.8407 12.6105
811 1 0 6.9496 -3.19885 13.3154
812 1 0 8.03945 -3.80815 13.0281
813 1 0 9.2977 -3.22105 12.1985
814 1 0 11.5992 -3.5252 12.9791
815 1 0 -10.0562 -2.74915 12.9461
816 1 0 -8.847 -2.50295 13.0336
817 1 0 -6.70975 -2.4718 13.1495
818 1 0 8.6315 -2.43805 12.6723
819 1 0 10.0452 -2.9065 13.2268
820 1 0 11.3766 -2.38005 13.049
821 1 0 -11.2869 -1.44695 12.9303
822 1 0 -7.4278 -1.02755 12.3927
823 1 0 7.9444 -1.64185 12.9497
824 1 0 9.94425 -0.909201 12.4909
825 1 0 11.4194 -1.1634 12.7194
826 1 0 -10.5187 -0.301201 12.9139
827 1 0 -9.5002 -0.4849 12.2673
828 1 0 -8.89775 -0.47665 13.3248
829 1 0 -6.94115 0.231998 13.2373
830 1 0 8.65945 -0.473499 12.888
831 1 0 11.1823 0.12915 12.3825
832 1 0 -12.1349 0.6931 12.7185
833 1 0 -11.199 1.4559 13.1404
834 1 0 -10.0555 1.05845 12.6187
835 1 0 -7.95805 1.5452 12.4013
836 1 0 -8.93285 0.738548 12.2758
837 1 0 -8.9317 1.5525 13.2022
838 1 0 7.70455 0.71195 12.3511
839 1 0 9.24815 1.0303 12.4624
840 1 0 10.3728 1.42985 12.437
841 1 0 11.9632 0.77565 13.2238
842 1 0 -10.7946 2.6483 13.3525
843 1 0 -10.3462 2.83125 12.2995
844 1 0 -7.1457 2.56575 13.034
845 1 0 6.7854 2.08885 12.8432
846 1 0 10.3224 2.5131 12.9507
847 1 0 11.5585 2.0469 12.9475
848 1 0 -8.50575 3.46545 12.4804
849 1 0 -7.2228 3.805 12.3279
850 1 0 6.84155 3.6892 13.149
851 1 0 9.85765 3.66085 12.9515
852 1 0 11.2296 3.53605 12.8954
853 1 0 -10.7826 5.42865 13.0177
854 1 0 -9.6385 4.6025 12.5608
855 1 0 -6.3042 4.6032 12.779
856 1 0 -5.03065 5.14725 13.1754
857 1 0 5.53615 4.6756 13.0534
858 1 0 7.54995 4.6283 12.3582
859 1 0 8.674 5.42585 13.3767
860 1 0 9.4039 4.9808 12.5559
861 1 0 10.7718 5.37615 12.3416
862 1 0 -9.54195 6.22485 12.8498
863 1 0 -8.3092 5.5108 13.1522
864 1 0 -7.2687 5.9536 12.3666
865 1 0 -6.33335 5.6564 13.3622
866 1 0 -4.767 6.1641 12.3692
867 1 0 -2.8896 6.38755 12.9918
868 1 0 4.3254 5.7693 13.11
869 1 0 5.9307 6.27405 12.8038
870 1 0 7.5342 6.10425 12.4265
871 1 0 9.0316 6.3199 12.3749
872 1 0 -7.3041 7.05625 12.7649
873 1 0 -6.0922 7.90645 12.8054
874 1 0 -5.9916 6.7674 13.0063
875 1 0 -4.5553 7.47525 12.9703
876 1 0 -2.4919 7.3915 12.2673
877 1 0 -0.139 7.04875 12.8204
878 1 0 2.3203 7.8922 12.8671
879 1 0 4.0023 7.8105 13.0406
880 1 0 3.0956 6.79955 12.9729
881 1 0 5.67135 7.3488 13.16
882 1 0 7.07335 7.34635 12.7409
883 1 0 9.0488 7.53875 12.6769
884 1 0 8.1181 6.738 13.3938
885 1 0 -8.8368 7.92935 12.7561
886 1 0 -6.80055 8.81 12.1982
887 1 0 -4.71615 8.8248 12.8847
888 1 0 -3.46225 8.81685 12.7032
889 1 0 -2.19105 8.6935 12.314
890 1 0 -1.0219 8.80595 12.8938
891 1 0 1.5234 9.11125 12.928
892 1 0 0.9175 7.92945 12.9045
893 1 0 5.22175 8.53895 13.2728
894 1 0 4.2851 8.88255 12.5665
895 1 0 7.2853 8.49915 12.2159
896 1 0 8.02685 8.8082 13.183
897 1 0 -6.3152 9.1687 13.2929
898 1 0 -5.9958 10.1288 12.4742
899 1 0 -3.56435 10.1462 12.6188
900 1 0 -2.5987 9.4468 13.3714
901 1 0 0.57855 10.3097 13.0717
902 1 0 0.25745 9.20575 12.6474
903 1 0 1.9372 10.212 13.2158
904 1 0 3.0912 10.15 13.0327
905 1 0 4.64725 10.3598 12.7643
906 1 0 6.38745 9.6505 12.323
907 1 0 -4.766 10.6266 13.1195
908 1 0 -2.07395 10.3676 12.7676
909 1 0 -2.73665 11.1973 13.4009
910 1 0 -0.7407 10.4687 13.0647
911 1 0 -0.435699 11.3128 12.2345
912 1 0 3.1332 11.13 12.2193
913 1 0 -1.5173 11.7416 13.3781
914 1 0 -2.14415 -11.6394 14.286
915 1 0 1.6465 -11.7358 14.0281
916 1 0 -3.36295 -10.5498 14.085
917 1 0 -0.7292 -11.016 13.6128
918 1 0 0.5212 -10.604 14.083
919 1 0 2.00805 -10.6707 13.4359
920 1 0 3.4217 -10.8995 14.0026
921 1 0 5.2592 -10.6496 14.1535
922 1 0 -5.84415 -10.0529 14.1647
923 1 0 -4.5601 -9.97955 14.506
924 1 0 -1.8932 -10.2078 14.3502
925 1 0 1.7408 -9.2895 13.8038
926 1 0 1.97445 -10.1825 14.6163
927 1 0 3.54355 -9.5148 13.4947
928 1 0 6.75015 -9.32445 13.7693
929 1 0 -8.29865 -8.05125 13.7792
930 1 0 -6.8799 -8.24755 14.2258
931 1 0 -5.49795 -8.3023 13.6877
932 1 0 -3.98635 -8.5795 14.1269
933 1 0 -1.9856 -8.7368 14.3467
934 1 0 -1.057 -8.01705 13.9596
935 1 0 0.387201 -8.83855 14.0325
936 1 0 2.8619 -8.69955 14.409
937 1 0 4.5969 -8.63225 14.1471
938 1 0 8.34455 -8.60565 13.8178
939 1 0 -9.51825 -7.0562 13.8989