LAMMPS (3 Mar 2020)
Reading data file ...
  orthogonal box = (-50 -50 0) to (50 50 50)
  1 by 1 by 1 MPI processor grid
  reading atoms ...
  1161 atoms
  read_data CPU = 0.00548388 secs
WARNING: Changed valency_val to valency_boc for X (../reaxc_ffield.cpp:315)
Neighbor list info ...
  update every 1 steps, delay 10 steps, check yes
  max neighbors/atom: 2000, page size: 100000
  master list distance cutoff = 12
  ghost atom cutoff = 12
  binsize = 6, bins = 17 17 9
  3 neighbor lists, perpetual/occasional/extra = 2 1 0
  (1) pair reax/c, perpetual
      attributes: half, newton off, ghost
      pair build: half/bin/newtoff/ghost
      stencil: half/ghost/bin/3d/newtoff
      bin: standard
  (2) compute centro/atom, occasional
      attributes: full, newton on
      pair build: full/bin/atomonly
      stencil: full/bin/3d
      bin: standard
  (3) fix qeq/reax, perpetual, copy from (1)
      attributes: half, newton off, ghost
      pair build: copy
      stencil: none
      bin: none
Setting up Verlet run ...
  Unit style    : real
  Current step  : 0
  Time step     : 0.01
Per MPI rank memory allocation (min/avg/max) = 38.35 | 38.35 | 38.35 Mbytes
Step Lx Ly Lz Press Pxx Pyy Pzz PotEng Temp 
       0          100          100           50    394.56468    632.60393     322.0714    229.01871   -145071.34          300 
     200    100.22525    100.22525    50.112625   -26.306505    270.65903   -123.99062   -225.58792   -145507.42    384.95182 
     400    100.07975    100.07975    50.039876   -9.0665517    186.40016   -168.30703   -45.292784   -146203.06     456.0026 
     600    100.11048    100.11048     50.05524    2.4678856    200.67478   -128.01108   -65.260041   -146873.69    471.56864 
     800    100.21299    100.21299    50.106497   0.77728969    178.99307   -15.968218   -160.69298   -147470.08    462.23511 
    1000    100.21881    100.21881    50.109406   -1.8240732    53.612084   -41.137937   -17.946366   -147989.06    443.61315 
    1200    100.25963    100.25963    50.129813   0.48398866    12.840586    44.622458   -56.011078   -148398.74    418.65153 
    1400    100.26271    100.26271    50.131356    3.4133003    15.591955     79.31356   -84.665614   -148759.35    402.29155 
    1600      100.275      100.275    50.137499    3.2139333   -59.398645    -85.06532    154.10576   -149092.31    390.89711 
    1800    100.24185    100.24185    50.120926   -2.8255647   -126.83488    139.39094   -21.032749   -149411.22    384.52555 
    2000    100.23728    100.23728    50.118642     1.182838   -136.18208    90.086462    49.644133   -149695.12    375.55899 
    2200    100.29765    100.29765    50.148827  -0.87077081   -164.98959    50.782453    111.59483   -149910.28    359.71292 
    2400    100.35811    100.35811    50.179053   -2.3400641   -225.65226    141.39339    77.238677   -150129.67    353.70789 
    2600    100.45799    100.45799    50.228993    1.7868278   -113.70903    170.83526   -51.765748   -150308.83     345.0942 
    2800    100.52676    100.52676     50.26338  -0.25454788   -33.286453    90.979048   -58.456238   -150438.56    331.10923 
    3000    100.51459    100.51459    50.257296  -0.40929802    15.948626    63.572929   -80.749449   -150582.39    331.81169 
    3200    100.48064    100.48064    50.240321   -2.5478079    49.450762    137.74599   -194.84017   -150725.03    329.79925 
    3400    100.49388    100.49388    50.246938   0.78448597   -48.010865    224.67261   -174.30829   -150827.25    322.27903 
    3600    100.44928    100.44928    50.224638   -1.1890184    134.06706   -84.628238   -53.005875      -150970    326.15316 
    3800    100.41347    100.41347    50.206733   -1.2581099    68.619212   -70.214567   -2.1789741   -151084.47    322.49509 
    4000    100.39975    100.39975    50.199873   0.56780154    34.951014   -29.500355   -3.7472546   -151190.66    319.81105 
    4200    100.38706    100.38706    50.193531   -2.8018651   -19.250948    90.510889   -79.665537   -151304.64    321.46423 
    4400    100.41616    100.41616    50.208081   -2.9487721   -21.735452    43.729907   -30.840772   -151413.95    319.44062 
    4600    100.42147    100.42147    50.210737   0.31261542   -34.280488    191.95572   -156.73739   -151498.47    315.55847 
    4800    100.41717    100.41717    50.208584   -5.3839541    26.498461    123.54343   -166.19376   -151630.91    322.73862 
    5000    100.40341    100.40341    50.201706    2.1978635    96.987842    4.8930572   -95.287309   -151728.15    317.70717 
    5200    100.40426    100.40426    50.202129  -0.36722733     30.59779    142.59366   -174.29313   -151821.71    315.19699 
    5400    100.41529    100.41529    50.207643    1.5740035    66.318244    103.10422   -164.70045   -151887.22    310.54975 
    5600    100.43974    100.43974    50.219868  -0.30530249    29.533182    151.02083   -181.46992   -151962.19    310.91545 
    5800    100.43053    100.43053    50.215263    2.1770318    100.73807   -39.982247   -54.224724   -152060.31    316.73541 
    6000    100.40953    100.40953    50.204766  -0.29271053    84.315436    43.998842   -129.19241   -152113.08    306.70265 
    6200    100.37704    100.37704    50.188518   -3.6853579   -6.1633672    175.13645   -180.02915   -152196.94    313.25716 
    6400    100.37318    100.37318    50.186589  -0.62249898    -29.78832    80.126308   -52.205485   -152285.16    312.34665 
    6600    100.38559    100.38559    50.192793    2.7754103    78.946692    -10.90541   -59.715051   -152356.19    311.40171 
    6800    100.36774    100.36774    50.183869   0.29179556    125.10375   -21.662328   -102.56603   -152412.57    307.07293 
    7000    100.31616    100.31616    50.158082  -0.52235321     87.76456   -75.290758   -14.040862   -152484.25    309.80007 
    7200    100.29178    100.29178    50.145889   -1.6485723   -13.720709    86.709562    -77.93457   -152548.12    307.50205 
    7400    100.27244    100.27244    50.136219   -2.3931223    54.920073   -84.669395    22.569955   -152599.38    307.37742 
    7600     100.2342     100.2342      50.1171   -1.3009663    65.366773    64.087459   -133.35713   -152662.28    307.85976 
    7800      100.162      100.162       50.081   -3.6732646   -71.166202    231.61689   -171.47048   -152724.95    308.23731 
    8000    100.12794    100.12794    50.063968    1.7440499   -84.460818    205.30732   -115.61435   -152781.04    306.64801 
    8200    100.07429    100.07429    50.037147   0.67693402   -118.79349    200.95096   -80.126668   -152827.99    306.57876 
    8400     100.0413     100.0413     50.02065   -1.0375978   -138.35046    250.53911   -115.30144   -152882.04    305.56141 
    8600    100.02404    100.02404    50.012021   -2.8868712   -154.81028    114.74958    31.400095   -152912.98    304.37929 
    8800    100.01133    100.01133    50.005663   -1.9602543   -77.947493    162.42906   -90.362325   -152966.33     305.7888 
    9000    99.992035    99.992035    49.996017    7.9164033    24.412054    107.36519   -108.02804   -153011.28    305.45697 
    9200    99.971278    99.971278    49.985639  -0.15429295   -42.822036    225.12924   -182.77008   -153038.69    302.08304 
    9400    99.917477    99.917477    49.958738  -0.32729118   -7.3944733    50.557628   -44.145028   -153096.22    307.02111 
    9600    99.876219    99.876219    49.938109   -1.6428567    161.45292   -119.38684   -46.994652   -153119.48    301.83404 
    9800    99.862923    99.862923    49.931462  -0.77219966    57.243486    171.56527   -231.12536   -153161.71     305.1432 
   10000    99.854586    99.854586    49.927293   0.33437726    148.29442     37.89902   -185.19031   -153199.18    304.03243 
   10200     99.83212     99.83212     49.91606    1.7755768    150.89943   -24.435454   -121.13724   -153256.78    307.80145 
   10400    99.844838    99.844838    49.922419    1.9584171    112.32678     52.36539   -158.81691   -153303.03    305.23616 
   10600    99.808633    99.808633    49.904316   -3.0803535    79.334892    135.81962   -224.39558   -153340.47    304.40606 
   10800    99.781726    99.781726    49.890863    -1.945874    93.667903    221.32502   -320.83055   -153376.15    304.26033 
   11000     99.75292     99.75292     49.87646     1.255458    113.10893   -24.340217    -85.00234   -153409.64    302.52212 
   11200    99.692875    99.692875    49.846438  -0.19877365    193.35142    103.12027     -297.068   -153440.53     304.1894 
   11400    99.654177    99.654177    49.827089   -2.6631788    121.20168     13.35668    -142.5479   -153480.66      304.793 
   11600    99.601609    99.601609    49.800804   -1.1513995    254.65631   -155.55869   -102.55181   -153541.89    307.75248 
   11800    99.535613    99.535613    49.767806  -0.93222029    237.40596    21.488719   -261.69134   -153580.49    303.48473 
   12000    99.511744    99.511744    49.755872    1.4770621    182.43955   -148.82216   -29.186201   -153602.63    301.84835 
   12200    99.507366    99.507366    49.753683   0.24323196    231.33907   -23.675233   -206.93414   -153639.87    306.03177 
   12400     99.49287     99.49287    49.746435   0.92354686     119.3311    153.96262   -270.52308   -153689.94    304.08203 
   12600    99.463379    99.463379    49.731689    0.2385785    171.08019   -99.133371   -71.231083   -153729.24    303.70812 
   12800    99.497123    99.497123    49.748561  -0.72305096    256.10492   -114.96013   -143.31395   -153754.93    301.13255 
   13000    99.482011    99.482011    49.741006    2.5012031    214.99971     65.67916   -273.17526   -153788.28    307.45661 
   13200    99.472457    99.472457    49.736229     1.085296    248.03088   -34.624687    -210.1503   -153813.41    301.41042 
   13400    99.450552    99.450552    49.725276   0.49192682    188.57275    117.23193    -304.3289   -153838.73    302.84356 
   13600    99.412521    99.412521    49.706261   -3.0537681    247.94621    49.782503   -306.89001   -153850.88     301.3519 
   13800    99.358947    99.358947    49.679474   -2.0975718    169.73718   -82.977176   -93.052723   -153871.23    302.29686 
   14000    99.298261    99.298261     49.64913   0.89329934    196.82072   -9.4987469   -184.64208   -153896.87     304.0418 
   14200    99.202007    99.202007    49.601004    2.4477433    132.91065   -150.23338    24.665953    -153940.8    305.36886 
   14400    99.136279    99.136279     49.56814   -3.8028452    2.4260133    158.01217   -171.84672   -153976.46    302.57854 
   14600    99.071303    99.071303    49.535651   -1.4790895    44.509804    206.43724   -255.38431   -154014.74    304.91306 
   14800     99.01622     99.01622     49.50811    4.6902405    211.71242   -118.59883   -79.042864   -154040.08    302.24679 
   15000     99.00282     99.00282     49.50141    2.1432601    178.95593    55.298225   -227.82438   -154072.54    303.59166 
   15200    99.007611    99.007611    49.503805  -0.49535342    154.87062    25.738189   -182.09487   -154129.29    306.53515 
   15400    99.017271    99.017271    49.508636   0.22456496    58.036399    113.29045   -170.65316   -154155.63    303.07197 
   15600    99.017968    99.017968    49.508984   -1.9662748     126.6033    -1.266949   -131.23518   -154184.48    303.78592 
   15800     98.99014     98.99014     49.49507    4.0809029    156.14134   -44.020094   -99.878534    -154213.4    301.03586 
   16000    98.934276    98.934276    49.467138    0.5609345    140.96796    129.57018   -268.85534   -154234.16    303.03401 
   16200     98.88054     98.88054     49.44027  -0.26611015    35.915182    111.92067   -148.63418   -154270.61    304.59131 
   16400     98.82602     98.82602     49.41301    1.6506384    167.05246   -233.61007    71.509526   -154320.68    306.33102 
   16600    98.774851    98.774851    49.387426    2.5498463    79.179742    44.886006   -116.41621   -154359.07    303.56132 
   16800    98.757058    98.757058    49.378529    2.8394883    53.957045    62.764277   -108.20286   -154392.64    302.73714 
   17000    98.734605    98.734605    49.367303   -7.4511558    127.27941    108.38626   -258.01914   -154414.05    301.27669 
   17200    98.700244    98.700244    49.350122  -0.72290086    157.17143   -38.010236    -121.3299   -154427.64    301.32113 
   17400    98.678914    98.678914    49.339457   -3.2986888    64.793347    135.20173   -209.89115   -154428.25    300.13279 
   17600    98.600216    98.600216    49.300108    6.0002465    113.07262   -2.1931426   -92.878735    -154447.6    300.90088 
   17800    98.539812    98.539812    49.269906   -6.9101935     16.08135    32.621637   -69.433568   -154463.18     301.7593 
   18000    98.501791    98.501791    49.250895    1.3413668    144.13075    52.008196   -192.11484   -154481.32     302.9227 
   18200    98.450922    98.450922    49.225461   -5.7729814    177.43971   -15.846863   -178.91179   -154498.47    301.88196 
   18400    98.386923    98.386923    49.193462    2.3635093    236.55445   -145.40694   -84.056988   -154521.83    301.92739 
   18600    98.353137    98.353137    49.176569   -2.5454004    132.26231     29.83845   -169.73696   -154539.48    301.38731 
   18800    98.312139    98.312139     49.15607   -2.3618073    160.71243   -109.49684   -58.301012   -154552.51    301.23958 
   19000    98.252848    98.252848    49.126424   -4.5675358    203.76304   -84.699865   -132.76578   -154560.99    298.58439 
   19200    98.202325    98.202325    49.101163    2.9631913    187.60322   -125.28725   -53.426392   -154560.67    298.94006 
   19400    98.177843    98.177843    49.088922   -2.6493486     74.36693   -2.6998878   -79.615088   -154569.08    301.86606 
   19600    98.126738    98.126738    49.063369   -2.9593696    104.59545   -41.478963   -71.994595   -154583.92    302.04521 
   19800    98.049745    98.049745    49.024872    -2.035681    84.198313    75.005873   -165.31123   -154606.44    302.64737 
   20000    98.019258    98.019258    49.009629   -4.2858891    93.425674   -20.331421   -85.951921   -154615.16    299.96796 
   20200    97.982387    97.982387    48.991194  -0.58767751   -83.438851    163.35716   -81.681346   -154609.32    298.23446 
   20400    97.951244    97.951244    48.975622   -4.6221196    80.522821    19.217233   -113.60641   -154643.52    303.30942 
   20600    97.908221    97.908221    48.954111    2.7489299    78.226064    12.333182   -82.312456   -154661.43    300.03335 
   20800    97.866685    97.866685    48.933342    4.5868246    14.880764    12.846505   -13.966794    -154679.1    302.11447 
   21000    97.809506    97.809506    48.904753  -0.67135468    -6.454588    33.168577   -28.728053   -154698.17    303.15764 
   21200    97.743688    97.743688    48.871844     1.816469   -32.064361    298.22668   -260.71292   -154701.36    300.57805 
   21400    97.705039    97.705039    48.852519   -1.7058356    104.32324    105.58969   -215.03043   -154725.04    305.14446 
   21600    97.669734    97.669734    48.834867   -1.6734716   -36.059691     264.0573   -233.01803   -154739.26    302.81695 
   21800    97.632662    97.632662    48.816331    1.7226038   -44.604149    123.75414   -73.982184   -154744.63    299.09889 
   22000    97.598275    97.598275    48.799138   0.88740105    185.16324   -118.83829   -63.662741   -154761.57    303.31408 
   22200    97.573528    97.573528    48.786764   -1.4230799    87.446898   -11.007293   -80.708845   -154784.72    299.97517 
   22400    97.563169    97.563169    48.781584    1.5486627   -3.3014131    164.16099   -156.21359   -154782.45    300.08701 
   22600    97.526504    97.526504    48.763252   -3.5341016    245.50833   -51.632064   -204.47857   -154797.99    301.31352 
   22800    97.479354    97.479354    48.739677    8.8722952   -21.933826     63.09178   -14.541068   -154826.44    303.99389 
   23000    97.454588    97.454588    48.727294    1.9463113    37.117345    367.33636   -398.61478   -154824.29    297.11531 
   23200    97.411358    97.411358    48.705679    1.6556205    52.101863    72.159544   -119.29455   -154831.48    301.71827 
   23400    97.326206    97.326206    48.663103   -1.9629098    82.563255    216.63135   -305.08334   -154846.32    300.69021 
   23600     97.26764     97.26764     48.63382   -5.8827316    60.653842    69.672029   -147.97407   -154850.44    301.01363 
   23800     97.21104     97.21104     48.60552    1.8809159    227.59445   -152.26626   -69.685446   -154865.59     303.9691 
   24000    97.179521    97.179521    48.589761   -1.9916154    101.96896     369.5108   -477.45461   -154869.66    298.74925 
   24200    97.168268    97.168268    48.584134   -0.7099602   -76.123542    150.75014   -76.756475   -154899.55    305.01845 
   24400    97.140944    97.140944    48.570472   -2.4297341     260.7115   -3.9142881   -264.08642   -154902.28    298.98525 
   24600    97.110525    97.110525    48.555263 -0.066779798    69.162441    85.751058   -155.11384   -154924.13    302.72481 
   24800    97.091296    97.091296    48.545648   -0.4835945    149.58353    149.20926   -300.24357   -154943.32    301.21424 
   25000    97.065863    97.065863    48.532932    2.6693956    88.212591    147.76708   -227.97148   -154958.89    302.71011 
Loop time of 890.725 on 1 procs for 25000 steps with 1161 atoms

Performance: 0.024 ns/day, 989.694 hours/ns, 28.067 timesteps/s
99.2% CPU use with 1 MPI tasks x no OpenMP threads

MPI task timing breakdown:
Section |  min time  |  avg time  |  max time  |%varavg| %total
---------------------------------------------------------------
Pair    | 695.46     | 695.46     | 695.46     |   0.0 | 78.08
Neigh   | 0.027978   | 0.027978   | 0.027978   |   0.0 |  0.00
Comm    | 0.10564    | 0.10564    | 0.10564    |   0.0 |  0.01
Output  | 0.0076006  | 0.0076006  | 0.0076006  |   0.0 |  0.00
Modify  | 194.97     | 194.97     | 194.97     |   0.0 | 21.89
Other   |            | 0.1623     |            |       |  0.02

Nlocal:    1161 ave 1161 max 1161 min
Histogram: 1 0 0 0 0 0 0 0 0 0
Nghost:    553 ave 553 max 553 min
Histogram: 1 0 0 0 0 0 0 0 0 0
Neighs:    132409 ave 132409 max 132409 min
Histogram: 1 0 0 0 0 0 0 0 0 0
FullNghs:  0 ave 0 max 0 min
Histogram: 1 0 0 0 0 0 0 0 0 0

Total # of neighbors = 132409
Ave neighs/atom = 114.047
Neighbor list builds = 7
Dangerous builds = 0
Initial Length, L0: 48.5329316890413
Setting up Verlet run ...
  Unit style    : real
  Current step  : 0
  Time step     : 0.01
Per MPI rank memory allocation (min/avg/max) = 40.84 | 40.84 | 40.84 Mbytes
Step v_strain Temp v_p2 v_p3 v_p4 KinEng PotEng Press 
       0 -5.8561699e-16    302.71011 -0.008821327 -0.014776814  0.022797026    1046.6928   -154958.89    2.6703852 
     200         0.02    315.73045 0.0028437157 0.0036426244   0.33519146    1091.7137      -154733    -1138.926 
     400         0.04    322.08379 -0.0001117049 3.5945595e-05   0.39621182    1113.6819   -154375.96   -1320.4535 
     600         0.06    327.50394 0.0004917047 0.00046571145   0.52020069    1132.4234   -153910.32   -1737.1937 
     800         0.08    331.63012 4.5357766e-05 0.00026267277   0.62818142    1146.6906   -153316.87   -2094.9648 
    1000          0.1    347.17051 0.00039167164 0.00049638385   0.71787109    1200.4253   -152674.55   -2395.8638 
    1200         0.12    361.26148 -0.00023788572 -6.6400418e-05     0.818247    1249.1481   -151966.23   -2726.4757 
    1400         0.14    379.76456 -2.6777675e-05 -0.00022526477   0.89067634     1313.127   -151231.07    -2968.081 
    1600         0.16    392.90617 0.00022450456 -2.3338489e-05   0.96519176    1358.5672   -150457.71   -3217.9764 
    1800         0.18    407.42008 -0.00014780376 -0.00019823026    1.0313887    1408.7526   -149663.74   -3436.8087 
    2000          0.2    418.80317 -4.4697965e-05 1.9273087e-05    1.0981785    1448.1123   -148846.23   -3660.5104 
    2200         0.22    428.63059 -2.873484e-05 3.5380642e-05    1.1544823     1482.093    -148006.7   -3848.2966 
    2400         0.24    441.71327 0.00018134466 0.00025553481    1.2182488    1527.3295   -147167.32   -4062.2855 
    2600         0.26    447.99747 5.033766e-06 7.2219549e-06    1.2768675    1549.0586   -146298.71   -4256.2658 
    2800         0.28    458.80257 -1.6362952e-05 -3.4925059e-05     1.324319    1586.4198   -145432.53   -4414.2258 
    3000          0.3    465.05172 0.00010089438 0.00013528762    1.3696253    1608.0278   -144566.72   -4566.2048 
    3200         0.32    473.39255 0.00013003617 0.00013845258    1.4128614    1636.8682   -143703.71   -4710.4331 
    3400         0.34    480.01697 0.00010228811 0.00010889382    1.4457423    1659.7737   -142856.84    -4819.845 
    3600         0.36    487.04349 3.533827e-05 1.905713e-05    1.4738315    1684.0696    -142028.4   -4912.9531 
    3800         0.38    487.92293 0.00011381739 9.3154157e-05    1.5044984    1687.1105   -141195.15   -5015.6845 
    4000          0.4    493.67045 1.7815455e-05 1.359202e-05     1.527292    1706.9839    -140384.5   -5091.0782 
    4200         0.42    497.25014 8.7500094e-05 0.00010456189    1.5406617    1719.3615   -139601.65   -5136.1792 
    4400         0.44    501.06733 7.6440768e-05 9.2382791e-05    1.5602243    1732.5604   -138843.31   -5201.3102 
    4600         0.46    507.23614 9.8159255e-05 0.00010566149    1.5986554    1753.8905   -138118.06   -5329.5308 
    4800         0.48    511.68821 0.00010116092 4.8935378e-05    1.6296998    1769.2846   -137397.11    -5432.833 
    5000          0.5    517.67907 7.6806789e-05 8.0731751e-05    1.6656548    1789.9994   -136708.55   -5552.7076 
    5200         0.52    520.84498 -1.5398067e-05 -1.8090534e-05    1.6925724    1800.9463   -136027.98   -5641.7964 
    5400         0.54    526.19546 0.00011210435 0.00010366897    1.7213539    1819.4469   -135380.94   -5738.5655 
    5600         0.56    527.62687 9.8643424e-05 5.227827e-05    1.7615062    1824.3964   -134731.54   -5872.1903 
    5800         0.58    531.46834 4.7111607e-05 3.8083761e-05    1.7988392    1837.6792   -134099.79   -5996.4147 
    6000          0.6    531.75096 4.9119076e-05 5.6967424e-05    1.8301164    1838.6564   -133465.62   -6100.7415 
    6200         0.62     533.0616 0.00016485179 0.00016241293    1.8674514    1843.1882   -132838.17   -6225.9288 
    6400         0.64    534.12232 7.433754e-05 4.1770357e-05    1.8989915    1846.8559   -132213.95   -6330.3586 
    6600         0.66    534.74309 9.3455192e-05 1.8520628e-05    1.9364899    1849.0024   -131596.55   -6455.3394 
    6800         0.68    538.24122 4.6790079e-05 3.9866435e-05     1.992257     1861.098   -130988.59   -6641.1456 
    7000          0.7    543.66121 4.4090653e-05 2.4022525e-05    2.0375064    1879.8389   -130397.88   -6791.9151 
    7200         0.72    553.25737 5.5045434e-05 4.1168331e-05     2.085448      1913.02   -129849.61   -6951.8139 
    7400         0.74    558.01315 4.0266576e-05 -8.3276066e-06    2.1401658    1929.4642   -129313.84   -7133.9924 
    7600         0.76    555.53365 6.2736743e-05 7.1165383e-05    2.2030229    1920.8907      -128736   -7343.8561 
    7800         0.78    563.53108 8.731026e-05 4.4039063e-05    2.2715151    1948.5438   -128191.85   -7572.1549 
    8000          0.8    558.01346 4.640852e-05 3.4698208e-05    2.3031936    1929.4653   -127603.67   -7677.5822 
    8200         0.82    564.11326 4.1371081e-05 3.4981889e-05    2.3670237    1950.5568   -127049.31   -7890.3334 
    8400         0.84    562.69074 8.3786399e-05 7.4799586e-05    2.4482063    1945.6381   -126464.54   -8161.2163 
    8600         0.86    563.37179 8.7237483e-05 8.5494585e-05    2.5111063     1947.993      -125855     -8370.93 
    8800         0.88    567.28839 7.7268864e-05 2.9885215e-05    2.5543365    1961.5356   -125260.58    -8514.812 
    9000          0.9    576.65013 9.610524e-05  8.95373e-05    2.6148691     1993.906   -124704.42   -8716.8491 
    9200         0.92     585.0823 7.1728697e-05 0.0001118222    2.6405316    2023.0623   -124191.27   -8802.3838 
    9400         0.94    588.14896 9.6543715e-06 0.00010989231    2.6875865     2033.666   -123692.55     -8959.02 
    9600         0.96    592.23792 0.00013013842 0.00013917069     2.751839    2047.8045   -123199.55   -9173.6945 
    9800         0.98    596.19202 3.4685821e-05 3.5332063e-05    2.8202938    2061.4768   -122718.37   -9401.2129 
   10000            1    600.25445 5.4475051e-05 0.0001233685    2.8798786    2075.5236   -122243.36   -9600.1881 
   10200         1.02    602.25328 8.1822043e-05 0.00015241734    2.9140877     2082.435   -121767.72   -9714.4063 
   10400         1.04     606.2908 1.7200337e-05 0.00011357792    2.9274706    2096.3958   -121323.43   -9758.6711 
   10600         1.06    608.95328 5.4338728e-05 6.6071112e-05    2.9366451    2105.6019   -120900.57   -9789.2185 
   10800         1.08    612.92049 2.1011837e-05 -8.7101973e-06    2.9632421    2119.3195   -120509.42   -9877.5146 
   11000          1.1    620.53535 2.8256912e-05 1.0782757e-06    2.9766528    2145.6497   -120163.66   -9922.2738 
   11200         1.12    625.14334 1.2665267e-05 4.3882261e-05    2.9771406    2161.5829   -119857.64   -9923.9906 
   11400         1.14    622.23743 9.7699767e-05 0.00015447317    2.9551657    2151.5351   -119549.29   -9851.3929 
   11600         1.16    626.21271 0.00013666895 0.00011457893    2.9186702    2165.2805   -119290.08   -9729.7381 
   11800         1.18    633.82611 7.2086242e-05 9.2130701e-05    2.8862899    2191.6057   -119106.17   -9621.5136 
   12000          1.2    635.70479 1.3772253e-05 4.2021259e-05    2.8465385    2198.1017   -118952.39   -9488.6476 
   12200         1.22    634.68798 7.2198537e-05 7.3860439e-05    2.8009469    2194.5858   -118823.73   -9336.9764 
   12400         1.24    639.51187 3.7054159e-05 2.0291778e-05    2.7534172    2211.2655   -118754.42   -9178.2483 
   12600         1.26    649.06877 2.4580744e-05 2.9264407e-05    2.7022265    2244.3108   -118774.97    -9007.601 
   12800         1.28    655.13204 -3.5952466e-05 -5.6173055e-05     2.675497     2265.276   -118855.31   -8918.0164 
   13000          1.3     654.4083 0.00016693341 0.00020607175     2.627987    2262.7735   -118953.24   -8761.1999 
   13200         1.32    652.31867 3.5643564e-05 3.5643991e-05    2.5685118    2255.5481   -119074.52   -8561.9436 
   13400         1.34    652.12832 -2.9286936e-05 4.7090374e-05    2.5178308    2254.8899   -119235.38   -8392.8287 
   13600         1.36    644.05112 5.6209155e-05 2.5736505e-05    2.4773272    2226.9611   -119385.02   -8258.0305 
   13800         1.38    634.20989 -8.8970599e-06 2.1333681e-05    2.4331563    2192.9327    -119508.8   -8110.5625 
   14000          1.4    639.55003 3.3333853e-05 1.2619053e-06    2.3887208    2211.3975   -119695.63   -7962.5181 
   14200         1.42      643.351 1.3675855e-06 -1.7704723e-05    2.3388754    2224.5403   -119941.36   -7796.1969 
   14400         1.44    639.65182 -5.1722819e-05 -2.2828186e-05    2.2973651    2211.7495   -120183.72   -7657.6353 
   14600         1.46    634.74819 6.1130853e-05 8.3222097e-05    2.2568419     2194.794   -120431.78   -7523.2874 
   14800         1.48    634.61964 -8.5849059e-05 -4.256728e-05    2.2075874    2194.3495   -120709.12   -7358.1967 
   15000          1.5    633.46022 7.6529566e-05 0.00013186205    2.1777106    2190.3405   -121010.91   -7259.7298 
   15200         1.52    629.82866 5.2529837e-05 3.1778829e-06    2.1578514    2177.7835   -121308.27   -7193.0237 
   15400         1.54      626.606 3.258066e-05 6.5661871e-05     2.136724    2166.6404   -121605.11   -7122.7408 
   15600         1.56    608.96256 8.0204511e-05 6.2481596e-05    2.0940317     2105.634   -121827.28   -6980.5814 
   15800         1.58    601.52641 -4.9894918e-05 -6.0820796e-05     2.056185    2079.9217   -122040.95   -6853.5809 
   16000          1.6    603.67442 -9.519784e-05 -7.5471117e-07    2.0273459     2087.349   -122296.98   -6757.4997 
   16200         1.62    602.27894 -0.00011134818 -3.9505848e-05    1.9895151    2082.5238   -122566.28   -6631.2141 
   16400         1.64    600.24542 5.0858617e-05 3.6946527e-05    1.9473224    2075.4924   -122846.89   -6491.3672 
   16600         1.66    598.38544 6.8148808e-05 3.1651643e-05    1.9177419    2069.0611   -123147.18   -6392.8057 
   16800         1.68    592.86856 5.9971216e-05 3.9677489e-06    1.9029848    2049.9851   -123428.46   -6343.4958 
   17000          1.7    585.36898 2.3307058e-05 -5.9826267e-06    1.8830854    2024.0535   -123687.12    -6277.009 
   17200         1.72    581.66491 6.5513663e-05 9.4749101e-05    1.8566389    2011.2458   -123947.04   -6189.3305 
   17400         1.74    577.28598 -5.6650481e-05 3.6421847e-06    1.8286841    1996.1046    -124203.2   -6095.4371 
   17600         1.76      578.047 -1.0960799e-05 -2.1538117e-05    1.8121929     1998.736    -124483.2   -6040.5347 
   17800         1.78     572.2215 -1.6128586e-05 -1.2675251e-05    1.7901546     1978.593   -124743.33   -5967.0859 
   18000          1.8    567.97291 5.2053216e-05 4.2081798e-05    1.7693089    1963.9025   -125001.21   -5898.0101 
   18200         1.82    565.03851 -5.6973124e-06 -1.4579866e-05    1.7353074    1953.7561   -125263.15   -5784.2903 
   18400         1.84    562.15806 7.4085003e-05 0.00010184662     1.715529    1943.7962   -125530.14   -5719.0163 
   18600         1.86    553.50793 0.00014479222 8.7614373e-05    1.6975063    1913.8863   -125763.21   -5659.1292 
   18800         1.88    550.59899 1.1326035e-05 4.8619819e-05    1.6805221     1903.828   -125998.05   -5601.9403 
   19000          1.9    549.13619 1.2481659e-05 3.6120223e-05    1.6546162      1898.77   -126243.14   -5515.5492 
   19200         1.92     543.8562 -8.1393348e-05 -4.6823348e-05    1.6255442    1880.5131   -126477.46   -5418.0532 
   19400         1.94    535.30921 3.5656592e-06 3.9558157e-05    1.6088526    1850.9599   -126681.73   -5362.9858 
   19600         1.96    535.47203 9.8118504e-05 5.1355015e-05    1.6030379    1851.5229   -126903.07    -5343.958 
   19800         1.98    532.13092 0.00010683663 0.00012987913    1.5986207    1839.9702   -127118.84   -5329.5248 
   20000            2    527.83672 -1.7085095e-05 4.1230765e-05    1.5919062     1825.122   -127314.81   -5306.4343 
   20200         2.02     517.5172 0.00012085835 0.00016187089    1.5863055    1789.4397   -127472.84   -5288.6273 
   20400         2.04    514.35884 5.696297e-05 9.1135913e-05    1.5886791    1778.5189   -127620.92   -5296.0906 
   20600         2.06    513.80007 9.7770802e-05  3.77564e-05    1.5853692    1776.5869   -127780.29   -5285.0159 
   20800         2.08    508.62017 3.737139e-05 -5.8326078e-06    1.5837953    1758.6761   -127916.36   -5279.4229 
   21000          2.1     505.5991 0.00011514988 0.00014070497    1.5785277    1748.2301   -128046.17   -5262.6119 
   21200         2.12    501.35446 6.4950788e-05 0.00011083481    1.5644286    1733.5532   -128164.29    -5215.348 
   21400         2.14    499.56209 -2.2279221e-05 1.6576983e-05    1.5548623    1727.3557   -128284.97   -5182.8554 
   21600         2.16    499.39147 3.9354368e-05 4.1769398e-06    1.5485747    1726.7657   -128418.46   -5162.0606 
   21800         2.18    493.66687 3.4898155e-05 2.5440381e-05    1.5518072    1706.9715   -128522.05   -5172.8918 
   22000          2.2    493.76026 8.1555398e-05 0.00010922913    1.5411944    1707.2944   -128635.45   -5137.9505 
   22200         2.22    495.72077 0.00019581453 0.00011876586    1.5289764    1714.0734   -128771.95   -5097.6365 
   22400         2.24    485.69143 2.8527475e-05 1.2412728e-05    1.5125764    1679.3945   -128861.21   -5042.0578 
   22600         2.26    481.86505 0.00016643035 0.00012110153    1.4976327    1666.1639   -128944.43   -4993.0675 
   22800         2.28    485.42619 1.2161242e-05 2.8531616e-05    1.4865282    1678.4774   -129065.97   -4955.2295 
   23000          2.3    482.78479 4.7916699e-05 3.7252939e-05    1.4769722    1669.3441   -129173.99   -4923.5245 
   23200         2.32    483.74553 5.8898563e-05 0.00010663016    1.4678211    1672.6661   -129295.43   -4893.2888 
   23400         2.34    484.96641 7.0033023e-05 4.9623206e-05    1.4579955    1676.8876   -129430.69    -4860.384 
   23600         2.36     481.2841 3.6628568e-05 -2.7598574e-05    1.4532617    1664.1551   -129552.07   -4844.2357 
   23800         2.38    479.78163 6.1218943e-05 6.4234652e-05    1.4504583      1658.96   -129670.61   -4835.2793 
   24000          2.4    477.88726 8.8969698e-05 9.733886e-05    1.4395231    1652.4097   -129787.87   -4799.0315 
   24200         2.42    478.81585 0.00011079551 4.4699703e-05    1.4327366    1655.6206   -129917.95   -4776.3071 
   24400         2.44    475.64869 3.7720302e-05 6.325129e-05    1.4359151    1644.6693    -130036.4   -4786.7203 
   24600         2.46    471.92996 3.4985451e-05 3.2984797e-05    1.4269705    1631.8109   -130139.27   -4756.7948 
   24800         2.48    470.94555 4.6025797e-05 6.6824314e-05    1.4156925    1628.4071   -130248.99   -4719.3512 
   25000          2.5    472.24416 6.8583006e-05 8.2251986e-05    1.4008042    1632.8974   -130374.47     -4669.85 
Loop time of 918.176 on 1 procs for 25000 steps with 1161 atoms

Performance: 0.024 ns/day, 1020.196 hours/ns, 27.228 timesteps/s
99.2% CPU use with 1 MPI tasks x no OpenMP threads

MPI task timing breakdown:
Section |  min time  |  avg time  |  max time  |%varavg| %total
---------------------------------------------------------------
Pair    | 748.9      | 748.9      | 748.9      |   0.0 | 81.56
Neigh   | 0.33068    | 0.33068    | 0.33068    |   0.0 |  0.04
Comm    | 0.084363   | 0.084363   | 0.084363   |   0.0 |  0.01
Output  | 2.6827     | 2.6827     | 2.6827     |   0.0 |  0.29
Modify  | 166.03     | 166.03     | 166.03     |   0.0 | 18.08
Other   |            | 0.1526     |            |       |  0.02

Nlocal:    1161 ave 1161 max 1161 min
Histogram: 1 0 0 0 0 0 0 0 0 0
Nghost:    154 ave 154 max 154 min
Histogram: 1 0 0 0 0 0 0 0 0 0
Neighs:    80150 ave 80150 max 80150 min
Histogram: 1 0 0 0 0 0 0 0 0 0
FullNghs:  156236 ave 156236 max 156236 min
Histogram: 1 0 0 0 0 0 0 0 0 0

Total # of neighbors = 156236
Ave neighs/atom = 134.57
Neighbor list builds = 134
Dangerous builds = 0
Good Morning Neil

Please see the log.cite file for references relevant to this simulation

Total wall time: 0:30:09
