Created by bestin,amorphous Silica coating-silicon nanotube

3823 atoms
2 atom types

-0.500000E+02 0.50000E+02 xlo xhi
-0.500000E+02 0.50000E+02 ylo yhi
0.0000000E+02 0.50000E+02 zlo zhi

Masses

1 28.0855
2 15.999

Atoms

1	1	0	5.50E+00	0.00E+00	0.00E+00
2	1	0	5.03E+00	2.24E+00	0.00E+00
3	1	0	4.45E+00	3.23E+00	2.00E+00
4	1	0	2.75E+00	4.77E+00	2.00E+00
5	1	0	1.70E+00	5.23E+00	-4.44E-16
6	1	0	-5.75E-01	5.47E+00	3.99E+00
7	1	0	-1.70E+00	5.23E+00	2.00E+00
8	1	0	-3.68E+00	4.09E+00	2.00E+00
9	1	0	-4.45E+00	3.23E+00	-8.88E-16
10	1	0	-5.38E+00	1.14E+00	3.99E+00
11	1	0	-5.50E+00	6.74E-16	2.00E+00
12	1	0	-5.03E+00	-2.24E+00	2.00E+00
13	1	0	-4.45E+00	-3.23E+00	-2.22E-15
14	1	0	-2.75E+00	-4.77E+00	3.99E+00
15	1	0	-1.70E+00	-5.23E+00	2.00E+00
16	1	0	5.75E-01	-5.47E+00	2.00E+00
17	1	0	1.70E+00	-5.23E+00	-1.33E-15
18	1	0	3.68E+00	-4.09E+00	3.99E+00
19	1	0	4.45E+00	-3.23E+00	2.00E+00
20	1	0	5.38E+00	-1.14E+00	2.00E+00
21	1	0	5.50E+00	0.00E+00	3.99E+00
22	1	0	5.03E+00	2.24E+00	3.99E+00
23	1	0	4.45E+00	3.23E+00	5.99E+00
24	1	0	2.75E+00	4.77E+00	5.99E+00
25	1	0	1.70E+00	5.23E+00	3.99E+00
26	1	0	-5.75E-01	5.47E+00	7.98E+00
27	1	0	-1.70E+00	5.23E+00	5.99E+00
28	1	0	-3.68E+00	4.09E+00	5.99E+00
29	1	0	-4.45E+00	3.23E+00	3.99E+00
30	1	0	-5.38E+00	1.14E+00	7.98E+00
31	1	0	-5.50E+00	6.74E-16	5.99E+00
32	1	0	-5.03E+00	-2.24E+00	5.99E+00
33	1	0	-4.45E+00	-3.23E+00	3.99E+00
34	1	0	-2.75E+00	-4.77E+00	7.98E+00
35	1	0	-1.70E+00	-5.23E+00	5.99E+00
36	1	0	5.75E-01	-5.47E+00	5.99E+00
37	1	0	1.70E+00	-5.23E+00	3.99E+00
38	1	0	3.68E+00	-4.09E+00	7.98E+00
39	1	0	4.45E+00	-3.23E+00	5.99E+00
40	1	0	5.38E+00	-1.14E+00	5.99E+00
41	1	0	5.50E+00	0.00E+00	7.98E+00
42	1	0	5.03E+00	2.24E+00	7.98E+00
43	1	0	4.45E+00	3.23E+00	9.98E+00
44	1	0	2.75E+00	4.77E+00	9.98E+00
45	1	0	1.70E+00	5.23E+00	7.98E+00
46	1	0	-5.75E-01	5.47E+00	1.20E+01
47	1	0	-1.70E+00	5.23E+00	9.98E+00
48	1	0	-3.68E+00	4.09E+00	9.98E+00
49	1	0	-4.45E+00	3.23E+00	7.98E+00
50	1	0	-5.38E+00	1.14E+00	1.20E+01
51	1	0	-5.50E+00	6.74E-16	9.98E+00
52	1	0	-5.03E+00	-2.24E+00	9.98E+00
53	1	0	-4.45E+00	-3.23E+00	7.98E+00
54	1	0	-2.75E+00	-4.77E+00	1.20E+01
55	1	0	-1.70E+00	-5.23E+00	9.98E+00
56	1	0	5.75E-01	-5.47E+00	9.98E+00
57	1	0	1.70E+00	-5.23E+00	7.98E+00
58	1	0	3.68E+00	-4.09E+00	1.20E+01
59	1	0	4.45E+00	-3.23E+00	9.98E+00
60	1	0	5.38E+00	-1.14E+00	9.98E+00
61	1	0	5.50E+00	0.00E+00	1.20E+01
62	1	0	5.03E+00	2.24E+00	1.20E+01
63	1	0	4.45E+00	3.23E+00	1.40E+01
64	1	0	2.75E+00	4.77E+00	1.40E+01
65	1	0	1.70E+00	5.23E+00	1.20E+01
66	1	0	-5.75E-01	5.47E+00	1.60E+01
67	1	0	-1.70E+00	5.23E+00	1.40E+01
68	1	0	-3.68E+00	4.09E+00	1.40E+01
69	1	0	-4.45E+00	3.23E+00	1.20E+01
70	1	0	-5.38E+00	1.14E+00	1.60E+01
71	1	0	-5.50E+00	6.74E-16	1.40E+01
72	1	0	-5.03E+00	-2.24E+00	1.40E+01
73	1	0	-4.45E+00	-3.23E+00	1.20E+01
74	1	0	-2.75E+00	-4.77E+00	1.60E+01
75	1	0	-1.70E+00	-5.23E+00	1.40E+01
76	1	0	5.75E-01	-5.47E+00	1.40E+01
77	1	0	1.70E+00	-5.23E+00	1.20E+01
78	1	0	3.68E+00	-4.09E+00	1.60E+01
79	1	0	4.45E+00	-3.23E+00	1.40E+01
80	1	0	5.38E+00	-1.14E+00	1.40E+01
81	1	0	5.50E+00	0.00E+00	1.60E+01
82	1	0	5.03E+00	2.24E+00	1.60E+01
83	1	0	4.45E+00	3.23E+00	1.80E+01
84	1	0	2.75E+00	4.77E+00	1.80E+01
85	1	0	1.70E+00	5.23E+00	1.60E+01
86	1	0	-5.75E-01	5.47E+00	2.00E+01
87	1	0	-1.70E+00	5.23E+00	1.80E+01
88	1	0	-3.68E+00	4.09E+00	1.80E+01
89	1	0	-4.45E+00	3.23E+00	1.60E+01
90	1	0	-5.38E+00	1.14E+00	2.00E+01
91	1	0	-5.50E+00	6.74E-16	1.80E+01
92	1	0	-5.03E+00	-2.24E+00	1.80E+01
93	1	0	-4.45E+00	-3.23E+00	1.60E+01
94	1	0	-2.75E+00	-4.77E+00	2.00E+01
95	1	0	-1.70E+00	-5.23E+00	1.80E+01
96	1	0	5.75E-01	-5.47E+00	1.80E+01
97	1	0	1.70E+00	-5.23E+00	1.60E+01
98	1	0	3.68E+00	-4.09E+00	2.00E+01
99	1	0	4.45E+00	-3.23E+00	1.80E+01
100	1	0	5.38E+00	-1.14E+00	1.80E+01
101	1	0	5.50E+00	0.00E+00	2.00E+01
102	1	0	5.03E+00	2.24E+00	2.00E+01
103	1	0	4.45E+00	3.23E+00	2.20E+01
104	1	0	2.75E+00	4.77E+00	2.20E+01
105	1	0	1.70E+00	5.23E+00	2.00E+01
106	1	0	-5.75E-01	5.47E+00	2.40E+01
107	1	0	-1.70E+00	5.23E+00	2.20E+01
108	1	0	-3.68E+00	4.09E+00	2.20E+01
109	1	0	-4.45E+00	3.23E+00	2.00E+01
110	1	0	-5.38E+00	1.14E+00	2.40E+01
111	1	0	-5.50E+00	6.74E-16	2.20E+01
112	1	0	-5.03E+00	-2.24E+00	2.20E+01
113	1	0	-4.45E+00	-3.23E+00	2.00E+01
114	1	0	-2.75E+00	-4.77E+00	2.40E+01
115	1	0	-1.70E+00	-5.23E+00	2.20E+01
116	1	0	5.75E-01	-5.47E+00	2.20E+01
117	1	0	1.70E+00	-5.23E+00	2.00E+01
118	1	0	3.68E+00	-4.09E+00	2.40E+01
119	1	0	4.45E+00	-3.23E+00	2.20E+01
120	1	0	5.38E+00	-1.14E+00	2.20E+01
121	1	0	5.50E+00	0.00E+00	2.40E+01
122	1	0	5.03E+00	2.24E+00	2.40E+01
123	1	0	4.45E+00	3.23E+00	2.60E+01
124	1	0	2.75E+00	4.77E+00	2.60E+01
125	1	0	1.70E+00	5.23E+00	2.40E+01
126	1	0	-5.75E-01	5.47E+00	2.79E+01
127	1	0	-1.70E+00	5.23E+00	2.60E+01
128	1	0	-3.68E+00	4.09E+00	2.60E+01
129	1	0	-4.45E+00	3.23E+00	2.40E+01
130	1	0	-5.38E+00	1.14E+00	2.79E+01
131	1	0	-5.50E+00	6.74E-16	2.60E+01
132	1	0	-5.03E+00	-2.24E+00	2.60E+01
133	1	0	-4.45E+00	-3.23E+00	2.40E+01
134	1	0	-2.75E+00	-4.77E+00	2.79E+01
135	1	0	-1.70E+00	-5.23E+00	2.60E+01
136	1	0	5.75E-01	-5.47E+00	2.60E+01
137	1	0	1.70E+00	-5.23E+00	2.40E+01
138	1	0	3.68E+00	-4.09E+00	2.79E+01
139	1	0	4.45E+00	-3.23E+00	2.60E+01
140	1	0	5.38E+00	-1.14E+00	2.60E+01
141	1	0	5.50E+00	0.00E+00	2.79E+01
142	1	0	5.03E+00	2.24E+00	2.79E+01
143	1	0	4.45E+00	3.23E+00	2.99E+01
144	1	0	2.75E+00	4.77E+00	2.99E+01
145	1	0	1.70E+00	5.23E+00	2.79E+01
146	1	0	-5.75E-01	5.47E+00	3.19E+01
147	1	0	-1.70E+00	5.23E+00	2.99E+01
148	1	0	-3.68E+00	4.09E+00	2.99E+01
149	1	0	-4.45E+00	3.23E+00	2.79E+01
150	1	0	-5.38E+00	1.14E+00	3.19E+01
151	1	0	-5.50E+00	6.74E-16	2.99E+01
152	1	0	-5.03E+00	-2.24E+00	2.99E+01
153	1	0	-4.45E+00	-3.23E+00	2.79E+01
154	1	0	-2.75E+00	-4.77E+00	3.19E+01
155	1	0	-1.70E+00	-5.23E+00	2.99E+01
156	1	0	5.75E-01	-5.47E+00	2.99E+01
157	1	0	1.70E+00	-5.23E+00	2.79E+01
158	1	0	3.68E+00	-4.09E+00	3.19E+01
159	1	0	4.45E+00	-3.23E+00	2.99E+01
160	1	0	5.38E+00	-1.14E+00	2.99E+01
161	1	0	5.50E+00	0.00E+00	3.19E+01
162	1	0	5.03E+00	2.24E+00	3.19E+01
163	1	0	4.45E+00	3.23E+00	3.39E+01
164	1	0	2.75E+00	4.77E+00	3.39E+01
165	1	0	1.70E+00	5.23E+00	3.19E+01
166	1	0	-5.75E-01	5.47E+00	3.59E+01
167	1	0	-1.70E+00	5.23E+00	3.39E+01
168	1	0	-3.68E+00	4.09E+00	3.39E+01
169	1	0	-4.45E+00	3.23E+00	3.19E+01
170	1	0	-5.38E+00	1.14E+00	3.59E+01
171	1	0	-5.50E+00	6.73896456e-16	3.39E+01
172	1	0	-5.03E+00	-2.24E+00	3.39E+01
173	1	0	-4.45E+00	-3.23E+00	3.19E+01
174	1	0	-2.75E+00	-4.77E+00	3.59E+01
175	1	0	-1.70E+00	-5.23E+00	3.39E+01
176	1	0	5.75E-01	-5.47E+00	3.39E+01
177	1	0	1.70E+00	-5.23E+00	3.19E+01
178	1	0	3.68E+00	-4.09E+00	3.59E+01
179	1	0	4.45E+00	-3.23E+00	3.39E+01
180	1	0	5.38E+00	-1.14E+00	3.39E+01
181	1	0	5.50E+00	0.00E+00	3.59E+01
182	1	0	5.03E+00	2.24E+00	3.59E+01
183	1	0	4.45E+00	3.23E+00	3.79E+01
184	1	0	2.75E+00	4.77E+00	3.79E+01
185	1	0	1.70E+00	5.23E+00	3.59E+01
186	1	0	-5.75E-01	5.47E+00	3.99E+01
187	1	0	-1.70E+00	5.23E+00	3.79E+01
188	1	0	-3.68E+00	4.09E+00	3.79E+01
189	1	0	-4.45E+00	3.23E+00	3.59E+01
190	1	0	-5.38E+00	1.14E+00	3.99E+01
191	1	0	-5.50E+00	6.74E-16	3.79E+01
192	1	0	-5.03E+00	-2.24E+00	3.79E+01
193	1	0	-4.45E+00	-3.23E+00	3.59E+01
194	1	0	-2.75E+00	-4.77E+00	3.99E+01
195	1	0	-1.70E+00	-5.23E+00	3.79E+01
196	1	0	5.75E-01	-5.47E+00	3.79E+01
197	1	0	1.70E+00	-5.23E+00	3.59E+01
198	1	0	3.68E+00	-4.09E+00	3.99E+01
199	1	0	4.45E+00	-3.23E+00	3.79E+01
200	1	0	5.38E+00	-1.14E+00	3.79E+01
201 2  -0.65 -4.7397 -18.2758 0.0477783 
202 1  1.3 2.00455 -19.1404 2.01656 
203 2  -0.65 2.62855 -18.2854 0.779465 
204 2  -0.65 -10.135 -16.9326 1.55945 
205 1  1.3 -8.9674 -15.856 1.8456 
206 2  -0.65 -8.3743 -15.0121 0.61037 
207 2  -0.65 -7.6401 -16.658 2.39966 
208 2  -0.65 -2.97505 -16.6105 1.14594 
209 1  1.3 -1.6754 -16.1095 1.9397 
210 2  -0.65 -0.37715 -15.6403 1.01139 
211 2  -0.65 4.22565 -15.4497 2.28605 
212 2  -0.65 4.9504 -17.2944 0.463201 
213 2  -0.65 6.74875 -16.3105 2.3384 
214 1  1.3 5.4545 -16.0029 1.35484 
215 2  -0.65 11.2531 -15.2248 2.34522 
216 2  -0.65 13.1688 -15.0096 0.66706 
217 2  -0.65 -12.8289 -13.6019 0.373087 
218 2  -0.65 -11.0951 -12.7844 2.03115 
219 2  -0.65 -5.91255 -14.0009 0.87477 
220 1  1.3 -5.2736 -13.0117 1.98567 
221 1  1.3 1.7796 -12.5109 1.01999 
222 2  -0.65 3.10405 -13.0984 1.83259 
223 2  -0.65 6.0501 -14.846 0.349246 
224 2  -0.65 7.93505 -13.1692 1.26772 
225 2  -0.65 10.3043 -12.8307 2.44565 
226 2  -0.65 14.9487 -13.0431 1.50833 
227 2  -0.65 -13.4806 -11.3771 1.71765 
228 1  1.3 -12.2149 -12.1889 1.0405 
229 2  -0.65 -11.5323 -11.1641 0.00463365 
230 2  -0.65 -6.40625 -11.8801 2.38098 
231 2  -0.65 -4.09705 -12.1199 1.33584 
232 2  -0.65 -2.2881 -10.3555 0.238495 
233 2  -0.65 0.554852 -12.1659 2.08343 
234 2  -0.65 2.322 -11.1874 0.301227 
235 2  -0.65 4.7297 -10.0554 0.602565 
236 1  1.3 8.94965 -12.0857 1.88927 
237 2  -0.65 9.4631 -11.1108 0.649935 
238 2  -0.65 12.0784 -10.1832 0.62908 
239 2  -0.65 -17.4277 -9.5552 1.6146 
240 1  1.3 -16.1983 -8.5752 1.99038 
241 2  -0.65 -15.6213 -7.8283 0.60732 
242 2  -0.65 -9.9888 -9.31685 1.10861 
243 1  1.3 -8.82465 -8.70535 2.05649 
244 2  -0.65 -7.8823 -7.7619 1.11337 
245 2  -0.65 -2.95525 -8.42215 1.94494 
246 1  1.3 -1.70005 -9.2267 1.25013 
247 2  -0.65 -0.959801 -8.17765 0.278668 
248 2  -0.65 -0.642651 -9.76615 2.42519 
249 1  1.3 5.3195 -8.8922 1.58528 
250 2  -0.65 6.00725 -7.63065 0.75792 
251 2  -0.65 6.55845 -9.6352 2.3055 
252 1  1.3 12.6213 -9.0305 1.68834 
253 2  -0.65 13.1497 -7.9075 0.668475 
254 2  -0.65 -18.2903 -5.5912 2.1966 
255 2  -0.65 -13.141 -6.90265 1.21069 
256 1  1.3 -14.2365 -7.1468 0.0099947 
257 1  1.3 -12.3884 -5.8761 2.25311 
258 2  -0.65 -11.1344 -5.1243 1.52608 
259 1  1.3 -5.4219 -5.28115 0.79531 
260 2  -0.65 -3.9848 -5.93835 1.41444 
261 2  -0.65 8.40715 -6.5413 0.48267 
262 1  1.3 9.01045 -5.6215 1.65076 
263 2  -0.65 15.5853 -6.9106 0.799835 
264 1  1.3 16.1914 -5.8255 1.89073 
265 2  -0.65 -18.9581 -4.16665 0.096987 
266 1  1.3 -10.6466 -3.9729 0.539775 
267 2  -0.65 -10.1489 -2.67645 1.53507 
268 2  -0.65 -7.5885 -2.5425 2.18714 
269 2  -0.65 -6.4167 -4.8989 1.99934 
270 2  -0.65 7.86235 -4.6241 2.37043 
271 2  -0.65 10.2971 -4.84445 0.954 
272 1  1.3 10.9 -3.48205 0.239988 
273 2  -0.65 15.0368 -4.7403 2.2775 
274 2  -0.65 17.3991 -4.88935 1.343 
275 1  1.3 17.828 -3.52265 0.507575 
276 2  -0.65 -17.3057 -2.24855 1.10664 
277 1  1.3 -16.1049 -1.70645 2.032 
278 2  -0.65 -14.9265 -0.9795 1.20862 
279 1  1.3 -8.92175 -1.64915 1.75491 
280 2  -0.65 -8.44845 -0.807249 0.448435 
281 1  1.3 7.253 -0.3859 0.318137 
282 2  -0.65 11.3018 -2.2269 1.21237 
283 1  1.3 12.5117 -1.2727 1.89539 
284 2  -0.65 13.0289 -0.346451 0.670385 
285 2  -0.65 13.7701 -2.2241 2.34892 
286 2  -0.65 18.2184 -2.29335 1.55337 
287 1  1.3 19.4891 -1.74975 2.48506 
288 2  -0.65 -18.6012 2.3461 1.58815 
289 2  -0.65 -12.9335 0.57975 0.226461 
290 2  -0.65 -13.406 2.23335 2.13856 
291 1  1.3 -12.2899 1.8078 1.06809 
292 2  -0.65 -11.0058 1.25255 1.88462 
293 2  -0.65 8.4512 0.3407 1.15143 
294 1  1.3 8.88865 1.61135 2.07458 
295 2  -0.65 9.99865 2.4016 1.15683 
296 2  -0.65 14.8337 1.49025 1.43454 
297 1  1.3 14.3122 0.503149 0.21403 
298 1  1.3 16.1328 2.32915 2.02267 
299 1  1.3 -17.8272 3.33295 0.518825 
300 2  -0.65 -17.2705 4.63295 1.32604 
301 2  -0.65 -14.7528 4.4457 2.21852 
302 2  -0.65 -10.3286 4.72935 1.05104 
303 2  -0.65 -11.7921 2.99645 0.076789 
304 2  -0.65 6.5352 4.73415 2.11398 
305 2  -0.65 7.62325 2.523 2.41838 
306 2  -0.65 11.1498 4.90225 1.60578 
307 1  1.3 10.598 3.76375 0.52427 
308 2  -0.65 16.6962 3.26165 0.81064 
309 2  -0.65 19.1073 4.5688 0.304773 
310 1  1.3 -15.9663 5.46035 1.85317 
311 2  -0.65 -15.3818 6.4531 0.630385 
312 1  1.3 -9.05405 5.25515 1.96774 
313 2  -0.65 -7.7955 5.6445 0.957275 
314 2  -0.65 -6.0238 7.3997 0.272573 
315 2  -0.65 1.26425 7.43885 0.619885 
316 1  1.3 5.4346 5.78 1.65148 
317 2  -0.65 5.95725 6.82745 0.471211 
318 2  -0.65 13.801 5.70145 1.71222 
319 1  1.3 14.3902 6.56375 0.472679 
320 2  -0.65 15.6721 7.48045 0.94894 
321 1  1.3 -14.3329 7.62205 0.0984455 
322 2  -0.65 -13.7507 8.18875 1.5064 
323 1  1.3 -12.5159 8.7478 2.41609 
324 2  -0.65 -11.2188 9.246 1.53094 
325 1  1.3 -5.32325 8.6972 1.07877 
326 2  -0.65 -6.5137 9.3295 1.93294 
327 2  -0.65 -4.01305 8.1476 1.83546 
328 2  -0.65 -4.8439 9.98805 0.270756 
329 1  1.3 1.79005 8.4978 1.77134 
330 2  -0.65 0.603951 9.54985 2.20957 
331 2  -0.65 2.93375 9.5359 1.19975 
332 1  1.3 9.0257 9.38815 1.88871 
333 2  -0.65 7.7348 8.6525 1.2703 
334 2  -0.65 10.1212 8.28935 2.43928 
335 2  -0.65 14.7692 9.58565 2.21697 
336 1  1.3 16.1247 8.7702 1.83254 
337 2  -0.65 17.2123 9.7122 1.08405 
338 1  1.3 -10.5319 10.3556 0.53666 
339 2  -0.65 -10.005 11.6351 1.42582 
340 2  -0.65 -7.49045 11.7166 2.46196 
341 2  -0.65 -2.9306 11.9077 1.04832 
342 2  -0.65 -0.439049 12.0285 2.02689 
343 2  -0.65 4.82005 11.238 0.906655 
344 1  1.3 3.59325 10.533 0.111139 
345 1  1.3 5.341 12.1632 2.11129 
346 2  -0.65 9.621 10.325 0.64983 
347 2  -0.65 13.7289 11.9098 1.79473 
348 2  -0.65 -14.8809 13.2533 1.50575 
349 1  1.3 -8.79285 12.5409 1.99044 
350 2  -0.65 -8.4765 13.597 0.84132 
351 1  1.3 -7.21345 14.3515 0.0588055 
352 1  1.3 -1.73415 12.9212 1.48281 
353 2  -0.65 -1.219 13.9623 0.33496 
354 2  -0.65 4.09895 13.1805 2.31442 
355 2  -0.65 6.5332 13.0896 1.5484 
356 1  1.3 7.13245 13.8513 0.225565 
357 2  -0.65 8.40315 14.7863 0.62861 
358 2  -0.65 11.2672 13.0825 2.04616 
359 1  1.3 12.3882 12.5421 1.04052 
360 2  -0.65 12.9357 13.7725 0.188043 
361 2  -0.65 -6.3784 15.4424 0.92147 
362 1  1.3 -5.1683 16.0303 1.90172 
363 2  -0.65 -3.8993 16.6545 1.12168 
364 2  -0.65 1.0855 15.1108 0.077655 
365 1  1.3 1.6319 16.0894 1.23706 
366 2  -0.65 2.25545 17.4987 0.67674 
367 2  -0.65 0.469849 16.2865 2.41612 
368 2  -0.65 2.9681 15.4644 1.97446 
369 1  1.3 9.031 15.8111 1.76349 
370 2  -0.65 7.77315 16.827 2.0978 
371 2  -0.65 10.2014 16.7258 1.2077 
372 1  1.3 -3.34765 17.8503 0.196517 
373 2  -0.65 -2.77145 18.9658 1.19797 
374 1  1.3 -1.5698 19.4944 2.15542 
375 2  -0.65 -0.458 19.8741 1.01813 
376 2  -0.65 4.08965 19.488 0.383759 
377 1  1.3 -7.05135 -18.0116 3.08038 
378 2  -0.65 -5.8039 -17.7615 4.14683 
379 2  -0.65 1.51725 -18.1596 3.19239 
380 1  1.3 0.18745 -17.6709 3.96651 
381 2  -0.65 6.18255 -18.421 3.979 
382 2  -0.65 -4.0018 -15.8108 4.95679 
383 2  -0.65 -0.979149 -17.2264 2.92165 
384 2  -0.65 0.68405 -16.2767 4.62912 
385 1  1.3 7.3579 -17.4282 3.43912 
386 2  -0.65 7.8782 -16.6054 4.69626 
387 2  -0.65 -11.9984 -14.1077 4.15442 
388 1  1.3 -10.6631 -13.6298 3.38841 
389 2  -0.65 -9.93525 -12.6477 4.47858 
390 2  -0.65 -9.5282 -14.8104 3.00276 
391 2  -0.65 -4.61355 -13.7283 3.31964 
392 1  1.3 -3.432 -14.5642 4.08883 
393 2  -0.65 -2.29715 -14.9298 2.94102 
394 2  -0.65 2.49805 -14.3529 4.15953 
395 1  1.3 3.65535 -14.1146 3.03149 
396 2  -0.65 4.8976 -13.4906 3.88235 
397 2  -0.65 9.6119 -14.6467 4.32021 
398 1  1.3 10.7878 -14.0922 3.36749 
399 2  -0.65 12.1054 -13.5109 4.19568 
400 2  -0.65 -15.1923 -11.8773 3.67895 
401 1  1.3 -14.1833 -10.7432 3.05471 
402 2  -0.65 -12.9872 -10.4008 4.09389 
403 2  -0.65 -7.55715 -11.4292 4.79536 
404 1  1.3 -6.9261 -10.7495 3.45154 
405 2  -0.65 -1.1736 -11.8837 3.81864 
406 1  1.3 0.0330505 -11.0437 3.08144 
407 2  -0.65 1.19835 -10.6468 4.15997 
408 2  -0.65 5.8535 -11.0154 4.49224 
409 1  1.3 7.0772 -10.294 3.67391 
410 2  -0.65 8.2451 -11.3435 3.21554 
411 1  1.3 14.4515 -10.3711 3.8014 
412 2  -0.65 13.1882 -11.1435 4.52357 
413 2  -0.65 15.6271 -11.4251 3.41366 
414 2  -0.65 -16.6945 -7.5387 3.1546 
415 2  -0.65 -15.0096 -9.38025 2.66159 
416 2  -0.65 -8.1468 -9.99595 2.69474 
417 2  -0.65 -9.3849 -7.76865 3.30206 
418 2  -0.65 -5.71215 -9.7306 3.73212 
419 1  1.3 -5.25545 -8.50135 4.65858 
420 2  -0.65 4.12075 -8.32485 2.522 
421 2  -0.65 2.9478 -8.93495 4.83397 
422 1  1.3 3.47385 -7.67675 3.91677 
423 2  -0.65 7.79975 -9.14195 4.61253 
424 2  -0.65 11.4038 -8.51785 2.60119 
425 2  -0.65 10.1256 -7.98435 4.90546 
426 2  -0.65 13.9347 -9.5415 2.51123 
427 2  -0.65 14.9498 -9.2968 4.95704 
428 1  1.3 -17.7437 -6.3755 3.5501 
429 2  -0.65 -17.0842 -5.3459 4.68462 
430 1  1.3 -10.6137 -7.30515 4.36877 
431 2  -0.65 -11.8112 -6.7467 3.48095 
432 2  -0.65 -4.6702 -7.3096 3.70129 
433 1  1.3 -3.48725 -7.02935 2.55399 
434 2  -0.65 4.8389 -6.91685 4.45966 
435 2  -0.65 9.5735 -6.6491 2.73205 
436 1  1.3 10.8154 -7.3519 3.53868 
437 2  -0.65 11.9854 -6.2073 3.91522 
438 2  -0.65 16.6796 -6.82015 3.08605 
439 1  1.3 17.9339 -7.20785 4.14643 
440 2  -0.65 -15.4212 -2.87115 3.01941 
441 2  -0.65 -13.4109 -4.739 2.65514 
442 1  1.3 -14.1414 -3.66625 3.67832 
443 2  -0.65 -12.9218 -2.68865 4.16881 
444 2  -0.65 -14.6886 -4.4094 4.99374 
445 2  -0.65 -8.1621 -4.52575 3.89915 
446 1  1.3 -6.9551 -3.76905 3.04849 
447 2  -0.65 6.6861 -4.982 4.84114 
448 1  1.3 7.35595 -3.91875 3.7682 
449 2  -0.65 8.60135 -3.20125 4.44315 
450 1  1.3 14.569 -3.4526 3.17108 
451 2  -0.65 13.5272 -4.06005 4.32737 
452 2  -0.65 15.6741 -2.7794 4.19336 
453 1  1.3 -17.909 -0.142551 4.1088 
454 2  -0.65 -18.3268 -1.48965 4.94698 
455 2  -0.65 -16.749 -0.515949 3.01423 
456 1  1.3 -12.4378 -1.3418 4.99684 
457 2  -0.65 -11.8616 -0.2106 3.9357 
458 2  -0.65 -9.4255 -0.682249 2.93497 
459 2  -0.65 10.2158 -1.1975 4.62497 
460 2  -0.65 11.9484 -0.195999 3.00951 
461 2  -0.65 16.5295 -0.2153 4.60658 
462 2  -0.65 18.9691 -0.575701 3.46541 
463 1  1.3 -19.7498 1.8549 2.60232 
464 2  -0.65 -19.2169 0.5522 3.41817 
465 2  -0.65 -15.3797 2.4199 3.95011 
466 1  1.3 -10.5534 0.42415 3.2458 
467 2  -0.65 -9.8829 1.5216 4.28093 
468 2  -0.65 9.56255 1.08385 3.47957 
469 1  1.3 10.7576 0.252449 4.1411 
470 2  -0.65 17.2689 1.3174 2.58662 
471 1  1.3 17.8073 0.498951 3.85758 
472 1  1.3 -14.2189 3.17685 3.15689 
473 2  -0.65 -13.068 3.73385 4.10535 
474 2  -0.65 -7.6226 2.5554 4.79928 
475 2  -0.65 -8.4044 4.06285 2.96774 
476 1  1.3 -7.02495 3.38825 3.54558 
477 2  -0.65 -5.89385 4.5312 3.88939 
478 1  1.3 7.1096 3.81805 3.25597 
479 2  -0.65 8.2861 4.6419 3.95516 
480 2  -0.65 12.8844 4.05745 3.63089 
481 1  1.3 14.1916 3.39005 4.35667 
482 2  -0.65 15.4961 3.08035 3.36705 
483 1  1.3 -17.7663 7.41245 3.40731 
484 2  -0.65 -16.475 6.4866 2.99158 
485 1  1.3 -10.6651 6.91545 4.1417 
486 2  -0.65 -11.1588 5.54385 4.85596 
487 2  -0.65 -9.55025 6.45765 2.99079 
488 1  1.3 -5.28015 5.6313 4.84685 
489 2  -0.65 -4.71985 6.9859 4.0585 
490 2  -0.65 4.8243 6.67855 2.88902 
491 1  1.3 3.57175 7.06065 3.9137 
492 2  -0.65 9.5227 6.89165 4.55977 
493 1  1.3 12.409 5.2404 2.54123 
494 2  -0.65 11.9502 6.5836 3.38833 
495 2  -0.65 16.8635 5.84325 4.74688 
496 2  -0.65 18.3577 6.1713 2.50828 
497 1  1.3 17.7425 6.9262 3.84669 
498 2  -0.65 -17.245 8.4934 4.54968 
499 2  -0.65 -11.9122 7.62965 3.41044 
500 2  -0.65 -8.27145 9.66635 4.04155 
501 1  1.3 -3.473 7.5651 3.28341 
502 2  -0.65 -2.88985 8.8057 4.13334 
503 2  -0.65 2.28915 7.6611 3.09852 
504 2  -0.65 6.66985 9.31665 4.97878 
505 1  1.3 10.7378 7.6226 3.81709 
506 2  -0.65 11.528 8.64315 4.81431 
507 2  -0.65 16.7598 8.10445 3.20589 
508 2  -0.65 -15.4517 11.3228 3.26956 
509 2  -0.65 -13.0449 10.0591 3.24676 
510 1  1.3 -14.1654 10.7284 4.1832 
511 2  -0.65 -13.6096 12.0098 4.92931 
512 1  1.3 -6.96155 10.2975 3.22422 
513 2  -0.65 -5.80995 10.6525 4.33584 
514 2  -0.65 -0.86595 10.5823 4.20537 
515 1  1.3 0.2202 10.9226 3.00853 
516 2  -0.65 1.49135 11.587 3.75305 
517 1  1.3 7.2397 10.6125 4.1527 
518 2  -0.65 5.97555 11.3183 3.38714 
519 2  -0.65 8.48045 10.2543 3.1886 
520 2  -0.65 13.0133 10.5914 3.92348 
521 1  1.3 14.2967 10.932 2.93251 
522 2  -0.65 15.5065 11.66 3.73467 
523 1  1.3 -10.5942 14.2505 3.87847 
524 2  -0.65 -11.1438 13.1108 4.92014 
525 2  -0.65 -11.741 14.8083 2.862 
526 2  -0.65 -9.26645 13.534 3.19835 
527 1  1.3 -3.46605 14.1007 3.79569 
528 2  -0.65 -4.06935 12.7205 4.45162 
529 2  -0.65 -4.6536 14.812 2.87176 
530 2  -0.65 -2.2517 13.7938 2.73885 
531 2  -0.65 2.4621 14.0556 4.27809 
532 1  1.3 1.95915 12.6509 4.96604 
533 1  1.3 3.6131 14.5083 3.14125 
534 2  -0.65 9.57355 14.9482 3.0403 
535 2  -0.65 10.1306 12.8987 4.54696 
536 1  1.3 10.7693 13.9036 3.4272 
537 2  -0.65 11.9968 14.7534 4.08386 
538 2  -0.65 -10.033 15.4375 4.78619 
539 2  -0.65 -8.26195 17.1854 3.94933 
540 2  -0.65 -5.76805 17.2117 2.90595 
541 2  -0.65 -2.98565 15.2397 4.84693 
542 1  1.3 -0.0125999 17.3275 3.59219 
543 2  -0.65 -0.543251 16.4211 4.83594 
544 2  -0.65 4.92355 15.2925 3.85505 
545 1  1.3 5.40205 16.4981 4.79198 
546 1  1.3 -7.0386 18.1735 3.33261 
547 2  -0.65 -1.1732 18.1826 2.94792 
548 2  -0.65 1.22155 18.308 4.11506 
549 2  -0.65 5.9945 17.7229 3.89456 
550 1  1.3 7.0923 18.1324 2.79998 
551 2  -0.65 -4.6665 -17.814 6.5455 
552 2  -0.65 -0.432301 -18.7208 5.0522 
553 2  -0.65 -2.37855 -19.0587 6.98375 
554 1  1.3 -1.70485 -19.6301 5.55715 
555 2  -0.65 2.4702 -18.4051 7.221 
556 2  -0.65 4.93 -17.9529 6.3397 
557 1  1.3 5.50105 -19.0991 5.26955 
558 1  1.3 -12.4863 -15.266 5.17275 
559 2  -0.65 -11.1978 -16.1538 5.57575 
560 1  1.3 -5.19205 -16.8446 5.36445 
561 2  -0.65 -6.43835 -15.9202 5.8636 
562 1  1.3 1.85935 -15.3439 5.20805 
563 2  -0.65 3.1251 -16.2878 5.7759 
564 1  1.3 3.5958 -17.2341 6.9847 
565 1  1.3 9.0407 -15.731 5.46605 
566 2  -0.65 8.3111 -15.117 6.7662 
567 2  -0.65 10.2831 -16.7591 5.883 
568 2  -0.65 -14.8422 -12.8031 6.16065 
569 1  1.3 -14.3044 -13.8278 7.26445 
570 2  -0.65 -13.1279 -14.7147 6.59095 
571 2  -0.65 -8.18315 -13.8549 5.99 
572 1  1.3 -7.05785 -14.6974 6.7483 
573 2  -0.65 -5.8973 -13.5905 7.0557 
574 2  -0.65 -2.75975 -13.5305 5.16505 
575 2  -0.65 -0.378 -12.7142 6.18305 
576 1  1.3 0.258101 -13.8132 7.26815 
577 2  -0.65 1.42045 -14.5261 6.51 
578 2  -0.65 6.63535 -13.2409 5.78245 
579 1  1.3 7.20465 -13.9167 7.13965 
580 2  -0.65 13.8018 -13.092 6.1512 
581 2  -0.65 -11.8242 -10.7508 6.48595 
582 1  1.3 -8.6912 -12.3829 5.51775 
583 2  -0.65 -9.3469 -11.6653 6.8225 
584 1  1.3 -3.57735 -10.0875 6.5895 
585 2  -0.65 -4.87455 -11.017 6.91715 
586 2  -0.65 -2.23545 -10.961 6.10405 
587 1  1.3 -1.69155 -12.2466 5.2651 
588 2  -0.65 2.35155 -10.7565 6.71545 
589 2  -0.65 4.3989 -12.2525 6.3953 
590 1  1.3 3.7054 -11.2613 7.4288 
591 1  1.3 5.38615 -12.4728 5.085 
592 2  -0.65 11.3008 -11.935 6.25065 
593 1  1.3 10.704 -10.8662 7.3332 
594 1  1.3 12.5685 -12.3846 5.37525 
595 2  -0.65 16.5736 -10.4188 6.6494 
596 2  -0.65 -13.7565 -8.85655 6.13685 
597 1  1.3 -14.2366 -7.55945 7.0339 
598 1  1.3 -12.5005 -9.61485 5.43335 
599 2  -0.65 -11.2625 -8.5498 5.20395 
600 2  -0.65 -6.6448 -8.04225 5.4576 
601 2  -0.65 -3.9886 -8.94765 5.5695 
602 1  1.3 1.76025 -9.86465 5.4939 
603 2  -0.65 0.544899 -8.8137 5.7965 
604 2  -0.65 9.5 -9.99615 6.5869 
605 1  1.3 8.9381 -8.7856 5.72765 
606 2  -0.65 8.34695 -7.56375 6.65145 
607 2  -0.65 17.3748 -8.38275 5.16405 
608 1  1.3 16.1451 -8.9565 6.0573 
609 2  -0.65 15.3896 -7.9592 7.1297 
610 1  1.3 -15.8946 -5.16135 5.7476 
611 2  -0.65 -15.4068 -6.6318 6.27965 
612 2  -0.65 -12.9625 -6.66965 7.40215 
613 2  -0.65 -9.98095 -6.1449 5.31405 
614 2  -0.65 -7.80485 -5.7134 6.27435 
615 1  1.3 -7.32045 -7.214 6.71945 
616 1  1.3 0.0772514 -7.41735 6.5115 
617 1  1.3 5.40825 -5.75535 5.4814 
618 2  -0.65 5.87735 -6.5137 6.86475 
619 1  1.3 12.7173 -5.29105 5.01675 
620 1  1.3 14.2253 -6.78995 7.20905 
621 2  -0.65 13.8764 -6.20615 5.72185 
622 2  -0.65 18.3825 -5.94375 5.03285 
623 2  -0.65 -19.0291 -3.36145 6.6894 
624 2  -0.65 -16.5548 -4.3468 7.0147 
625 1  1.3 -10.7153 -3.0519 6.9871 
626 2  -0.65 -11.6921 -4.3336 7.13415 
627 1  1.3 -8.8516 -4.9093 5.33565 
628 2  -0.65 -9.48885 -3.58645 6.0723 
629 2  -0.65 9.9839 -2.7729 6.67505 
630 2  -0.65 11.5582 -4.87215 6.1266 
631 1  1.3 10.9069 -4.01055 7.32015 
632 2  -0.65 19.003 -4.2093 7.0632 
633 1  1.3 17.9309 -3.0312 7.389 
634 1  1.3 -19.5392 -2.35135 5.48575 
635 2  -0.65 -13.7234 -0.69915 5.6916 
636 2  -0.65 -11.3832 -1.80395 6.1774 
637 1  1.3 -7.1604 -0.3533 6.835 
638 1  1.3 9.10815 -2.063 5.49705 
639 2  -0.65 7.8332 -1.2312 6.00785 
640 2  -0.65 14.8081 -1.13735 6.304 
641 2  -0.65 17.3814 -2.0579 6.19595 
642 1  1.3 16.0414 -1.59205 5.35585 
643 2  -0.65 -17.2545 0.953051 5.20385 
644 1  1.3 -16.0867 2.0388 5.4137 
645 2  -0.65 -15.0688 1.4361 6.4734 
646 1  1.3 -14.3234 0.0829487 7.0063 
647 1  1.3 -8.9014 1.7813 5.50205 
648 2  -0.65 -8.39485 0.368801 6.11475 
649 1  1.3 7.1656 0.138199 6.6799 
650 2  -0.65 8.2406 1.07785 7.34925 
651 2  -0.65 11.3559 0.971048 5.5158 
652 1  1.3 12.4903 1.76065 6.3789 
653 2  -0.65 13.6944 2.2552 5.38615 
654 2  -0.65 13.021 0.639702 7.42265 
655 2  -0.65 18.3633 1.4981 5.0031 
656 1  1.3 -18.0057 3.91715 7.06 
657 2  -0.65 -19.2008 2.9076 7.4436 
658 2  -0.65 -16.7561 3.2502 6.248 
659 1  1.3 -12.5008 4.70575 5.3364 
660 2  -0.65 -12.0282 3.6849 6.50885 
661 2  -0.65 -9.49545 2.83245 6.57115 
662 2  -0.65 10.1173 4.72335 6.00455 
663 2  -0.65 11.9482 3.11305 7.1499 
664 1  1.3 10.6351 4.1269 7.4071 
665 2  -0.65 14.7206 4.59345 5.3076 
666 2  -0.65 16.4338 4.5564 7.09125 
667 1  1.3 19.5224 2.5577 5.4677 
668 2  -0.65 18.9325 3.57335 6.5 
669 2  -0.65 -18.4356 5.1284 5.99065 
670 2  -0.65 -13.6525 5.8294 5.74415 
671 1  1.3 -14.3477 6.6481 6.98045 
672 2  -0.65 -6.52715 6.08015 5.8204 
673 1  1.3 -7.1432 7.054 6.96335 
674 1  1.3 -0.00964928 7.2432 6.40785 
675 1  1.3 8.9077 5.49805 5.20255 
676 2  -0.65 7.6308 5.68675 6.26875 
677 1  1.3 15.8304 5.5729 5.95745 
678 2  -0.65 15.4418 7.02475 6.552 
679 2  -0.65 -15.6242 7.50835 6.4231 
680 2  -0.65 -16.8316 9.85965 6.9453 
681 1  1.3 -16.215 8.8962 5.7419 
682 2  -0.65 -14.8799 9.5885 5.1359 
683 2  -0.65 -9.98375 7.99165 5.1885 
684 1  1.3 -8.87865 9.1071 5.44735 
685 2  -0.65 -7.71595 8.44975 6.32905 
686 1  1.3 -1.6993 9.51815 5.06295 
687 2  -0.65 -0.6057 8.3665 5.33405 
688 2  -0.65 1.29975 7.9393 7.17745 
689 2  -0.65 4.08945 8.11215 5.06935 
690 2  -0.65 5.98545 7.6445 6.9213 
691 1  1.3 5.37685 8.73715 5.8377 
692 1  1.3 12.5732 9.8031 5.27105 
693 1  1.3 14.4207 8.1185 7.2583 
694 2  -0.65 13.8519 9.08555 6.0396 
695 2  -0.65 -11.8619 11.6375 6.8531 
696 1  1.3 -10.6058 10.6908 7.43095 
697 2  -0.65 -9.46295 10.3358 6.3562 
698 1  1.3 -5.24805 11.8854 5.24785 
699 2  -0.65 -4.6944 11.2026 6.65025 
700 2  -0.65 -2.23225 10.2308 6.44565 
701 2  -0.65 4.97295 10.1561 6.58075 
702 2  -0.65 3.16495 11.9533 5.74105 
703 1  1.3 3.6677 11.0404 7.0552 
704 2  -0.65 7.8183 11.6718 5.29315 
705 2  -0.65 9.7291 11.9597 7.0397 
706 2  -0.65 11.8619 10.7603 6.35685 
707 2  -0.65 -13.0394 13.9179 6.7099 
708 1  1.3 -12.4146 12.7032 5.81545 
709 2  -0.65 -8.33135 13.4921 7.3912 
710 2  -0.65 -6.30795 13.0468 5.6278 
711 1  1.3 -7.0708 14.0709 6.61495 
712 2  -0.65 -1.1495 14.6118 6.59765 
713 1  1.3 0.0637493 13.6917 7.24965 
714 2  -0.65 0.703251 12.8235 6.0165 
715 1  1.3 7.217 14.9765 6.81515 
716 2  -0.65 5.963 14.0182 7.45215 
717 1  1.3 9.0638 12.6538 5.76885 
718 2  -0.65 8.42795 14.0611 6.18335 
719 2  -0.65 13.0508 14.4376 6.64565 
720 1  1.3 14.264 13.6276 7.327 
721 2  -0.65 14.8838 12.673 6.18555 
722 1  1.3 -8.79345 16.3292 5.22695 
723 2  -0.65 -7.5912 15.3441 5.76 
724 2  -0.65 -9.34015 17.2968 6.4271 
725 2  -0.65 -2.36905 17.0429 6.7229 
726 1  1.3 -1.7942 15.8621 5.732 
727 2  -0.65 4.1505 16.8272 5.7751 
728 2  -0.65 6.63795 16.0277 5.72025 
729 2  -0.65 11.2333 16.3404 6.1815 
730 1  1.3 12.41 15.4305 5.51875 
731 1  1.3 -3.61445 18.0453 7.07925 
732 2  -0.65 -4.2678 18.7889 5.81725 
733 1  1.3 1.729 19.5411 5.0087 
734 2  -0.65 2.77015 19.1127 6.1793 
735 1  1.3 3.4501 17.8554 6.8625 
736 1  1.3 -3.5198 -18.1282 7.6572 
737 2  -0.65 -4.26315 -19.0447 8.77555 
738 2  -0.65 0.571951 -18.8864 8.97715 
739 1  1.3 1.86285 -19.5547 8.2685 
740 2  -0.65 -10.1093 -16.4635 8.0015 
741 1  1.3 -8.86845 -15.8302 8.94435 
742 2  -0.65 -7.5985 -15.3074 8.0702 
743 2  -0.65 -8.3044 -17.0695 9.89115 
744 2  -0.65 -3.0127 -16.7315 8.2738 
745 2  -0.65 -0.805599 -15.0092 7.5691 
746 2  -0.65 -0.63295 -16.6141 9.63555 
747 1  1.3 -1.73255 -15.8062 8.6788 
748 2  -0.65 4.0739 -16.5072 8.34765 
749 1  1.3 5.19265 -15.5331 9.04005 
750 2  -0.65 6.51955 -16.3698 9.5465 
751 2  -0.65 11.5061 -15.9511 9.74615 
752 2  -0.65 -13.7916 -12.9636 8.49695 
753 1  1.3 -12.5872 -12.5013 9.56335 
754 2  -0.65 -9.5611 -14.7037 9.9959 
755 2  -0.65 -4.15325 -12.7718 8.7369 
756 1  1.3 -3.628 -13.7035 9.97905 
757 2  -0.65 -2.3618 -14.5506 9.54625 
758 2  -0.65 0.69125 -12.9111 8.5997 
759 1  1.3 1.88495 -12.5405 9.66245 
760 2  -0.65 5.85185 -14.682 7.80325 
761 2  -0.65 7.65865 -12.8674 8.31025 
762 2  -0.65 9.52285 -14.0134 9.7341 
763 1  1.3 8.89835 -12.5005 9.3256 
764 2  -0.65 14.7704 -13.3835 8.65735 
765 2  -0.65 -16.7038 -10.1649 7.773 
766 1  1.3 -10.685 -11.0997 7.5814 
767 2  -0.65 -11.26 -12.0805 8.7499 
768 1  1.3 -5.3814 -12.225 7.8654 
769 2  -0.65 -6.726 -11.7528 8.648 
770 1  1.3 -7.2914 -10.9333 9.96205 
771 2  -0.65 3.19745 -12.1106 8.7751 
772 2  -0.65 4.62555 -10.0028 7.83 
773 2  -0.65 5.99155 -10.5954 9.94525 
774 2  -0.65 10.0947 -11.5368 8.6878 
775 2  -0.65 15.419 -11.1635 9.932 
776 1  1.3 -16.1175 -9.2228 8.97345 
777 2  -0.65 -17.3289 -8.39775 9.67145 
778 2  -0.65 -14.9158 -8.22015 8.39665 
779 2  -0.65 -10.2466 -9.73805 8.38895 
780 2  -0.65 -7.9202 -9.4691 9.46075 
781 1  1.3 -9.1392 -8.6201 8.80975 
782 2  -0.65 -8.5476 -7.85705 7.5027 
783 2  -0.65 -3.1029 -9.2653 7.9271 
784 2  -0.65 -2.50155 -7.6902 9.8906 
785 1  1.3 -1.81895 -8.60085 8.7101 
786 2  -0.65 -0.738201 -9.55115 9.4433 
787 2  -0.65 -1.02205 -7.56335 7.6886 
788 2  -0.65 4.2201 -8.5155 9.73075 
789 1  1.3 5.45715 -9.3593 9.0617 
790 2  -0.65 6.688 -8.5023 8.54975 
791 2  -0.65 11.9334 -9.88105 7.79595 
792 1  1.3 12.3598 -8.68665 8.8294 
793 2  -0.65 11.0661 -8.4896 9.78685 
794 2  -0.65 13.6243 -9.154 9.7014 
795 2  -0.65 18.1089 -8.46115 9.4755 
796 1  1.3 -12.4209 -5.33535 8.14875 
797 2  -0.65 -11.1746 -5.7688 9.0975 
798 2  -0.65 -6.18895 -6.93465 7.85915 
799 1  1.3 -5.47845 -5.9394 8.9911 
800 1  1.3 7.1002 -7.1638 7.66605 
801 2  -0.65 7.5183 -5.95965 8.6774 
802 1  1.3 8.79475 -5.23115 9.461 
803 2  -0.65 12.8608 -7.40985 7.88105 