LAMMPS (15 Apr 2020)
OMP_NUM_THREADS environment is not set. Defaulting to 1 thread. (../comm.cpp:94)
  using 1 OpenMP thread(s) per MPI task
# Input file for uniaxial tensile loading

# ------------------------ INITIALIZATION ----------------------------
units 		real
dimension	3
boundary	p	p	p
atom_style	charge
#variable latparam equal 4.05

# ----------------------- ATOM DEFINITION ----------------------------
read_data	SiNW_Silica_10A.data
  orthogonal box = (0 0 0) to (50 50 50)
  1 by 1 by 1 MPI processor grid
  reading atoms ...
  2833 atoms
  read_data CPU = 0.0319972 secs
# ------------------------ FORCE FIELDS ------------------------------
pair_style      reax/c lmp_control
pair_coeff      * * ffield_Li_Si_Al_O Si O
WARNING: Changed valency_val to valency_boc for X (../reaxc_ffield.cpp:315)

# ------------------------- SETTINGS ---------------------------------
compute peratom all pe/atom
compute csym all centro/atom 12
compute reax all pair reax/c

######################################
# EQUILIBRATION
reset_timestep	0
timestep 0.01
velocity all create 300 12345 mom yes rot no
fix 1 all npt temp 300 300 1 iso 0 0 1 drag 1
fix 3 all qeq/reax 1 0.0 10.0 1e-6 reax/c
# Set thermo output
thermo 200
thermo_style custom step lx ly lz press pxx pyy pzz pe temp

# Run for at least 10 picosecond (assuming 1 fs timestep)
run 10000
Neighbor list info ...
  update every 1 steps, delay 10 steps, check yes
  max neighbors/atom: 2000, page size: 100000
  master list distance cutoff = 12
  ghost atom cutoff = 12
  binsize = 6, bins = 9 9 9
  3 neighbor lists, perpetual/occasional/extra = 2 1 0
  (1) pair reax/c, perpetual
      attributes: half, newton off, ghost
      pair build: half/bin/newtoff/ghost
      stencil: half/ghost/bin/3d/newtoff
      bin: standard
  (2) compute centro/atom, occasional
      attributes: full, newton on
      pair build: full/bin/atomonly
      stencil: full/bin/3d
      bin: standard
  (3) fix qeq/reax, perpetual, copy from (1)
      attributes: half, newton off, ghost
      pair build: copy
      stencil: none
      bin: none
Per MPI rank memory allocation (min/avg/max) = 111 | 111 | 111 Mbytes
Step Lx Ly Lz Press Pxx Pyy Pzz PotEng Temp 
       0           50           50           50    5017.3496     928.5982    4576.8254    9546.6252   -379386.94          300 
     200    50.563197    50.563197    50.563197   -101.85366   -3238.9159   -917.82177    3851.1767   -382083.01     532.2273 
     400    50.176954    50.176954    50.176954    23.909908   -2763.6902    785.63599     2049.784   -386273.73    697.13812 
     600    49.989075    49.989075    49.989075   -247.56146   -3224.3789    709.45371    1772.2408   -389050.57    643.39144 
     800    49.914382    49.914382    49.914382    37.470377    -2826.889    2988.4778   -49.177663   -390919.91    564.24048 
    1000      49.8691      49.8691      49.8691   -20.542901   -3614.5282      2983.02    569.87953   -392191.82    495.29316 
    1200    49.811643    49.811643    49.811643    60.049828   -2558.4209    1953.3085    785.26189   -393135.08    445.57789 
    1400    49.794333    49.794333    49.794333   -12.340974   -2013.6162    1879.1267    97.466578   -393933.06    417.23434 
    1600    49.765643    49.765643    49.765643    17.771994   -3066.4204    2610.8704    508.86597   -394648.94    398.61401 
    1800    49.751038    49.751038    49.751038   -29.192938   -2472.3537    1555.9809    828.79405   -395174.69     376.6678 
    2000    49.720901    49.720901    49.720901   -8.4856923   -2071.9854     1489.977    556.55131   -395729.12    369.03209 
    2200    49.685478    49.685478    49.685478     29.10492   -2003.8851    717.20152    1373.9983    -396187.2    358.53626 
    2400    49.696726    49.696726    49.696726   -20.893053   -2032.0742    2491.6979   -522.30286    -396702.2    359.24681 
    2600    49.664768    49.664768    49.664768    21.995311   -1218.3243    2429.3133   -1145.0031   -397111.89    350.70618 
    2800      49.6542      49.6542      49.6542    44.790837   -722.71588    2521.2311   -1664.1427   -397573.76    351.88089 
    3000    49.598585    49.598585    49.598585   -34.153178   -446.07956    618.94507   -275.32504   -397977.09     347.0521 
    3200    49.576709    49.576709    49.576709    47.373209   -444.53767   -13.676984    600.33428   -398289.89    336.96898 
    3400    49.554721    49.554721    49.554721    3.3451304   -1207.3267    986.62043    230.74172   -398633.09    336.97491 
    3600    49.512137    49.512137    49.512137    5.6054404    -1104.755    2447.3461   -1325.7748   -398949.04      333.765 
    3800    49.461351    49.461351    49.461351   -61.172132   -983.82968    1391.6224   -591.30913   -399322.09    337.91996 
    4000     49.44054     49.44054     49.44054   -14.544534    142.75888    860.90562   -1047.2981   -399520.69    323.67008 
    4200    49.390991    49.390991    49.390991   -23.563618    9.1427628    912.37838     -992.212   -399807.67    327.88187 
    4400    49.339013    49.339013    49.339013   -20.233115   -964.83222   -32.149251    936.28213   -400097.53    326.59684 
    4600    49.311197    49.311197    49.311197      3.58807   -636.77067    824.26347   -176.72859   -400312.97    321.73041 
    4800    49.304478    49.304478    49.304478    113.05421     199.5753    2167.4084    -2027.821   -400561.75    321.44325 
    5000    49.298695    49.298695    49.298695    53.360696   -344.42387    -899.8338    1404.3398   -400680.97    313.47372 
    5200    49.304327    49.304327    49.304327   -47.610936   -67.550249   -261.43848    186.15592   -400858.46    313.49846 
    5400    49.312116    49.312116    49.312116    -24.33719    497.92626    1145.0229   -1715.9608   -400959.22    306.98544 
    5600    49.330529    49.330529    49.330529    39.483232    451.41015   -1682.8066    1349.8462   -401118.93    310.41002 
    5800    49.350976    49.350976    49.350976    32.288175    958.44566    31.983991   -893.56513   -401217.02    306.00762 
    6000     49.37414     49.37414     49.37414   -43.256418    256.96919   -530.45732    143.71888   -401356.14    309.80607 
    6200    49.402917    49.402917    49.402917    13.453162   -979.61654    1770.0442   -750.06814   -401438.47    305.47953 
    6400    49.404237    49.404237    49.404237    23.164771   -372.36145    859.97876   -418.12299    -401559.5    306.66301 
    6600    49.408713    49.408713    49.408713   -3.8725325   -426.56042    1377.7686   -962.82581   -401661.98    304.69543 
    6800    49.412462    49.412462    49.412462   -40.187822   -651.50173    145.62759    385.31067   -401759.31     305.9634 
    7000    49.405467    49.405467    49.405467   -58.340562     544.1359    264.19274   -983.35033   -401833.83    304.01887 
    7200    49.399219    49.399219    49.399219   -32.485391    794.01193   -18.575778   -872.89232    -401909.7    304.67951 
    7400     49.38637     49.38637     49.38637   -16.515677    97.238206   -1563.3394    1416.5541   -401995.65    305.28973 
    7600    49.369338    49.369338    49.369338    42.108218    519.48409    524.55504   -917.71447   -402081.09    303.63554 
    7800    49.353505    49.353505    49.353505    57.002509   -187.33229    442.96688   -84.627066   -402172.34    304.45392 
    8000    49.349792    49.349792    49.349792   -16.556399    -419.9606   -269.33109    639.62249   -402266.75    305.96592 
    8200    49.357686    49.357686    49.357686    -37.32015     7.511047    474.57239   -594.04389   -402357.88    304.01121 
    8400    49.368169    49.368169    49.368169    34.351969    1078.7579   -967.15889   -8.5430911   -402446.08    305.05356 
    8600    49.376956    49.376956    49.376956    -5.080434    883.72909   -505.72989    -393.2405   -402557.49    306.99797 
    8800    49.390148    49.390148    49.390148    62.101079   -275.22575   -100.49702    562.02601   -402628.73     304.5757 
    9000    49.390252    49.390252    49.390252   -81.702617     584.0637   -383.34654   -445.82501    -402708.6    303.35868 
    9200    49.396314    49.396314    49.396314   -109.02109    185.99901   -819.49987    306.43761    -402767.3    302.08284 
    9400    49.400611    49.400611    49.400611    68.037239    154.13685    799.40903   -749.43416   -402829.95    302.66057 
    9600    49.405321    49.405321    49.405321     8.392617   -846.75457   -247.73967    1119.6721   -402868.69    303.69727 
    9800    49.400423    49.400423    49.400423    35.140828    652.31585   -1018.7812    471.88786   -402915.28    302.80808 
   10000    49.390636    49.390636    49.390636    -40.62713    325.83335   -1244.8423     797.1276   -402962.32    302.23879 
Loop time of 2077.9 on 1 procs for 10000 steps with 2833 atoms

Performance: 0.004 ns/day, 5771.939 hours/ns, 4.813 timesteps/s
99.1% CPU use with 1 MPI tasks x 1 OpenMP threads

MPI task timing breakdown:
Section |  min time  |  avg time  |  max time  |%varavg| %total
---------------------------------------------------------------
Pair    | 1608.7     | 1608.7     | 1608.7     |   0.0 | 77.42
Neigh   | 0.083795   | 0.083795   | 0.083795   |   0.0 |  0.00
Comm    | 0.24162    | 0.24162    | 0.24162    |   0.0 |  0.01
Output  | 0.35329    | 0.35329    | 0.35329    |   0.0 |  0.02
Modify  | 468.36     | 468.36     | 468.36     |   0.0 | 22.54
Other   |            | 0.1319     |            |       |  0.01

Nlocal:    2833 ave 2833 max 2833 min
Histogram: 1 0 0 0 0 0 0 0 0 0
Nghost:    2593 ave 2593 max 2593 min
Histogram: 1 0 0 0 0 0 0 0 0 0
Neighs:    509834 ave 509834 max 509834 min
Histogram: 1 0 0 0 0 0 0 0 0 0
FullNghs:  0 ave 0 max 0 min
Histogram: 1 0 0 0 0 0 0 0 0 0

Total # of neighbors = 509834
Ave neighs/atom = 179.963
Neighbor list builds = 5
Dangerous builds = 1
unfix 1

# Store final cell length for strain calculations
variable tmp equal "lz"
variable L0 equal ${tmp}
variable L0 equal 49.3906360641908
print "Initial Length, L0: ${L0}"
Initial Length, L0: 49.3906360641908

######################################
# DEFORMATION
reset_timestep	0

fix		1 all npt temp 300 300 1 x 0 0 1 y 0 0 1 drag 1
variable srate equal 1.0e10
variable srate1 equal "v_srate / 1.0e12"
fix		2 all deform 1 z erate ${srate1} remap x units box
fix		2 all deform 1 z erate 0.01 remap x units box

# Output strain and stress info to file
# for units metal, pressure is in [bars] = 100 [kPa] = 1/10000 [GPa]
# p2, p3, p4 are in GPa
variable strain equal "(lz - v_L0)/v_L0"
variable p1 equal "v_strain"
variable p2 equal "-pxx/10000"
variable p3 equal "-pyy/10000"
variable p4 equal "-pzz/10000"
fix def1 all print 100 "${p1} ${p2} ${p3} ${p4}" file SiNT_100.def1.txt screen no

# Use cfg for AtomEye
dump 		1 all custom 100 dump.tensile id type x y z c_csym c_peratom fx fy fz


# Display thermo
thermo 	200
thermo_style	custom step v_strain temp v_p2 v_p3 v_p4 ke pe press

run		25000
Per MPI rank memory allocation (min/avg/max) = 117.2 | 117.2 | 117.2 Mbytes
Step v_strain Temp v_p2 v_p3 v_p4 KinEng PotEng Press 
       0 -5.7544733e-16    302.23879 -0.032546544   0.12452069 -0.079676503    2551.3953   -402962.33   -40.992153 
     200         0.02    324.07785  0.011912683 -0.0030184079    3.4657666    2735.7531   -402425.96   -11582.203 
     400         0.04    341.98526  0.011011013 0.0059694236    3.4855664    2886.9213   -401655.91   -11675.156 
     600         0.06    338.71417 0.0034278161 0.0018723877    4.0892239    2859.3079   -400679.78   -13648.414 
     800         0.08    330.79584 0.0095749387 0.0044672129    4.9691531    2792.4641   -399358.88   -16610.651 
    1000          0.1    327.57879 -0.0006984856 0.0044522329    5.6567962    2765.3068   -397786.33     -18868.5 
    1200         0.12    334.23624 0.00044821931 0.00090310334    6.5347129    2821.5067    -396053.6   -21786.881 
    1400         0.14    348.73088 -0.0002972509 -0.00079208683    7.4132427    2943.8655   -394170.48   -24707.178 
    1600         0.16    364.57466  0.001341146 0.0003935849    8.0817758    3077.6131   -392171.09   -26945.035 
    1800         0.18     375.1764 -0.0022192652 -0.0019402598    8.6420787    3167.1094   -390045.57   -28793.064 
    2000          0.2     382.5741 -0.0013081746 -0.002131978    9.2131755    3229.5582   -387795.94   -30699.118 
    2200         0.22    391.17576 -0.00052510614 0.00035582154    9.8859491    3302.1704   -385445.56   -32952.599 
    2400         0.24    396.82284 -0.00020541479 0.00014308299    10.620185    3349.8412   -382942.43    -35400.41 
    2600         0.26     403.0037 0.00043558769 0.00084512319    11.329609    3402.0178   -380300.35   -37769.634 
    2800         0.28    413.35121 -0.00076848625 -0.00060724831    12.018942    3489.3679   -377591.03   -40058.553 
    3000          0.3    424.22969 0.00022489273 0.0004491531    12.657132    3581.2003    -374826.8   -42192.685 
    3200         0.32    433.35526 0.0013047193  0.001311766    13.167643    3658.2352   -372019.87   -43900.866 
    3400         0.34    444.08374 0.00043623982 0.00051377221    13.619594    3748.8013   -369233.64   -45401.813 
    3600         0.36    451.58275 0.00029261552 0.00036656021    13.995545    3812.1054   -366451.09   -46654.015 
    3800         0.38    461.70838 5.4654355e-05 0.0006010019    14.289391    3897.5824    -363743.6    -47633.49 
    4000          0.4    467.62386 0.00077745073 0.00095926323    14.553782    3947.5188   -361078.74   -48518.395 
    4200         0.42    473.40893 0.00050672079 -1.250999e-05    14.856625    3996.3544   -358461.01   -49523.731 
    4400         0.44    477.72165 0.00035704416 0.0004980623    15.214299    4032.7609   -355867.45   -50717.179 
    4600         0.46    483.69061 0.0006561885 0.00065607232    15.509162    4083.1488   -353330.46   -51701.581 
    4800         0.48    484.75577 0.00084991594 0.0010377225    15.800661    4092.1405   -350795.17   -52675.161 
    5000          0.5    486.74077 0.00051983903 0.00069596459     16.08311    4108.8972    -348283.3    -53614.42 
    5200         0.52    489.10287 0.00030604294 0.0005788514    16.437585    4128.8372   -345803.41   -54794.898 
    5400         0.54    490.74835 0.00026283497 8.5085999e-05    16.707988    4142.7278   -343333.39   -55694.453 
    5600         0.56     492.5878 0.0011149072 0.00087218429    16.980509    4158.2558   -340901.37   -56608.321 
    5800         0.58    494.48355 0.0004683637 3.9727319e-05    17.330012    4174.2591   -338490.39   -57768.401 
    6000          0.6    498.95754 0.00056090496 0.00074305862    17.727794    4212.0269   -336126.74   -59096.993 
    6200         0.62    504.62327 0.00038405345 0.00074969841    18.176189    4259.8551   -333792.46   -60591.077 
    6400         0.64    509.92771 0.00069027229 0.00029183617    18.495087    4304.6333    -331498.7   -61653.563 
    6600         0.66    515.18484 0.00084657898 0.00053820638    18.984446    4349.0122   -329236.54   -63286.102 
    6800         0.68    521.31486 0.00025150899 0.00036834266    19.450966    4400.7597   -327022.02   -64838.618 
    7000          0.7    523.35928 0.00042817826 -4.6674527e-05    19.972209     4418.018   -324783.46   -66575.302 
    7200         0.72    523.49886  0.001143621 0.0003174798    20.376464    4419.1963   -322519.18   -67926.417 
    7400         0.74    531.63937 0.00086232667 0.00017836302    21.086955    4487.9156   -320325.38   -70293.318 
    7600         0.76    540.34081 0.00088175855 0.00097073398    21.856317    4561.3702    -318135.6   -72860.564 
    7800         0.78      541.892  0.001536685 0.0010639558    22.348598    4574.4648   -315897.37   -74503.995 
    8000          0.8     541.8532 -0.00028348901 0.0011673753    23.060872    4574.1373    -313603.5    -76872.52 
    8200         0.82    547.36142 0.00041412935 0.00051550274    23.782931    4620.6358   -311290.58   -79279.535 
    8400         0.84     553.4284 0.00067740584 0.00084972162    24.523884    4671.8511   -309002.82   -81751.372 
    8600         0.86    562.33629 0.00047806277 0.00030865147    25.230227    4747.0484   -306731.77    -84103.38 
    8800         0.88    566.42922 0.00072342472 0.0005044383    25.491991    4781.5995   -304467.65   -84977.395 
    9000          0.9    573.91473 7.3697803e-05 0.0013351005    26.070872    4844.7896   -302271.36   -86907.604 
    9200         0.92    585.88274 0.0005881859 0.00096026331    26.647046    4945.8194   -300164.78   -88828.649 
    9400         0.94    593.52397 0.00014152128 -0.00084113321    26.909932    5010.3241    -298095.9   -89697.443 
    9600         0.96    599.58347 0.00073199866 0.00037265034    27.136803    5061.4763   -296098.19   -90459.694 
    9800         0.98    614.83427 -0.00068157745 0.00013810947     27.27604    5190.2183   -294278.71   -90918.322 
   10000            1    624.00859 0.00020259731 0.0013415284    27.153122    5267.6646   -292603.45   -90515.554 
   10200         1.02    626.52717 0.00022390474 -1.3133806e-05    27.137579    5288.9256   -290967.88   -90459.298 
   10400         1.04    640.20859 -0.00022649716 2.9760099e-05    26.907595    5404.4195    -289571.5   -89691.329 
   10600         1.06    663.87678 0.00018579971 -8.7510984e-05    26.765547    5604.2181   -288518.24   -89218.819 
   10800         1.08     679.3078 0.0023007857  0.001859352    26.468666    5734.4814   -287676.22   -88242.753 
   11000          1.1     689.0605 -0.00053430237 -0.00011263798    26.147761    5816.8103   -287001.87   -87157.046 
   11200         1.12    695.64945 -0.00040432468  0.001583388    25.703804     5872.432   -286466.78   -85683.278 
   11400         1.14    705.08843 0.00028297638 0.00021876202    25.271263    5952.1126   -286151.15   -84239.215 
   11600         1.16    708.78021 -0.00044729313 -0.00026226642    24.921742    5983.2773   -285937.03   -83070.108 
   11800         1.18    716.02786 0.0011320083 -3.8027216e-05    24.637366    6044.4595   -285881.98   -82128.199 
   12000          1.2    721.23706 0.0003316625 -0.00081442859    24.184649    6088.4337   -285975.36   -80613.888 
   12200         1.22    711.30661 0.0005031119 0.00021218171    23.709426    6004.6043   -286016.08   -79033.806 
   12400         1.24    696.31606 0.00086822373 0.00063369132    23.345049    5878.0593   -285940.12   -77821.835 
   12600         1.26    696.88596 0.00017316992 8.4782848e-05    23.077677    5882.8702   -285997.42    -76926.45 
   12800         1.28    701.42423 0.00060534925 0.00058670961    22.876996    5921.1807   -286177.83   -76260.625 
   13000          1.3      706.568 0.00059438623 0.00074212459    22.454091    5964.6026   -286485.51   -74851.424 
   13200         1.32    700.65254 0.00044715378 0.0002428929    22.098048    5914.6664   -286778.34   -73662.459 
   13400         1.34    698.61035 0.00019796905 0.00015239146     21.68175    5897.4269   -287136.79   -72273.668 
   13600         1.36    694.80085 0.00031043818 0.00023838942    21.257452    5865.2684   -287526.23   -70860.003 
   13800         1.38    693.93034 0.00020109536 0.00031923649     20.84217    5857.9199   -287997.58   -69475.634 
   14000          1.4     690.2704 7.4127312e-05 0.00060888761    20.534415     5827.024   -288502.07   -68450.328 
   14200         1.42    686.41181 0.00025795133 -8.2914848e-05    20.166293    5794.4511   -289028.23   -67221.561 
   14400         1.44    685.90758 2.4216782e-05 1.2536233e-05    19.781699    5790.1945    -289627.1   -65939.118 
   14600         1.46    692.35185 0.00017217566 0.00095803074    19.607589    5844.5948   -290369.68   -65362.398 
   14800         1.48    690.88596 0.0001387636 0.00071293301    19.258345    5832.2203   -291134.98   -64197.321 
   15000          1.5    686.14677 0.0006113491 0.0005152288     18.86094    5792.2137   -291901.95   -62873.555 
   15200         1.52    678.38682 0.00026959348 0.00021913136    18.597087    5726.7069   -292642.46   -61991.919 
   15400         1.54    671.36014 0.0004426407 0.0001661785     18.36955      5667.39   -293349.23   -61233.864 
   15600         1.56     669.6028 -5.5631017e-05 -0.00034659306    18.088317    5652.5552   -294103.88   -60293.049 
   15800         1.58    664.54211 0.00057544386 0.00015623538    17.724241    5609.8346   -294852.29   -59083.244 
   16000          1.6    662.03995 -7.7934486e-05 1.2701283e-05    17.571727    5588.7123   -295636.93   -58572.204 
   16200         1.62    656.88248 0.00073471779 0.00061325678    17.434218    5545.1747   -296388.99   -58118.554 
   16400         1.64    652.94689 -0.00014864427 4.4499566e-05    17.157549    5511.9518   -297139.37   -57191.482 
   16600         1.66     645.2268 -0.00046367339 -3.168195e-05    16.894155    5446.7814   -297860.75   -56312.198 
   16800         1.68    644.66357 -0.00013031701 5.8595214e-05    16.586954    5442.0268   -298629.16   -55289.606 
   17000          1.7    645.65457 -0.00039104873 -0.00038848406    16.406614    5450.3925   -299472.54   -54686.114 
   17200         1.72    643.07426 0.00070307206 0.00056398511    16.041405    5428.6104   -300314.72   -53475.574 
   17400         1.74    634.60371 -0.00019163069 -0.00011038034      15.7155     5357.105   -301107.27   -52383.992 
   17600         1.76     630.3435 0.00021554076 0.00021566507    15.503667    5321.1417   -301914.62   -51680.328 
   17800         1.78    622.04035 0.00013020631 0.00013605349    15.311823    5251.0495   -302664.07   -51040.298 
   18000          1.8    620.32949 0.00056713723 0.00051059226    15.091172    5236.6069   -303444.03   -50307.499 
   18200         1.82    610.11191 1.1850563e-05 -9.1347896e-06    14.751257    5150.3537   -304147.86   -49170.865 
   18400         1.84     604.0607 -3.4699802e-06 -2.6360736e-05    14.514481    5099.2715   -304845.66   -48381.505 
   18600         1.86     593.9588 -1.0764681e-05 -0.00016887329    14.312066    5013.9947   -305475.51   -47706.288 
   18800         1.88    588.91595 0.00037158074 0.00028808384    14.042245    4971.4248   -306094.69   -46809.682 
   19000          1.9    583.35014 -0.00017790419 -0.00014925099    13.845502    4924.4401   -306705.74   -46150.582 
   19200         1.92     581.4735 0.00046199942 0.0003748363    13.787594    4908.5982   -307331.58   -45961.436 
   19400         1.94    580.23389 0.00042732299 0.00043589893    13.554162    4898.1338   -307976.05   -45183.417 
   19600         1.96    574.98782 0.00058313598 0.00054187315    13.350407    4853.8483    -308594.8   -44505.107 
   19800         1.98    563.93339 0.00029748969 0.00033307376    13.213219    4760.5306   -309111.76   -44046.165 
   20000            2    562.07422 0.00025215974 0.00038929197    13.068521    4744.8361   -309666.02   -43563.873 
   20200         2.02    559.91347 -0.00012394411 2.7429574e-06    12.907637    4726.5958   -310232.77   -43025.051 
   20400         2.04    556.28183 0.00013780701 9.0718918e-05    12.793635    4695.9388   -310776.03   -42646.212 
   20600         2.06    555.54878 2.4621705e-05 -1.2615004e-05    12.648457    4689.7506   -311344.72   -42161.564 
   20800         2.08    550.59135 0.00036461963 0.0003733211     12.50941    4647.9017    -311881.2   -41700.491 
   21000          2.1    542.48379 0.00022453455 0.00016051167    12.435662    4579.4605   -312352.09   -41453.489 
   21200         2.12    537.36006 7.1500745e-05 8.8876369e-05    12.244598    4536.2078   -312804.48   -40815.862 
   21400         2.14    536.67945 0.00027107622 8.4666207e-05    12.254854    4530.4623   -313291.94   -40850.699 
   21600         2.16    527.94131 0.00099435643 -0.00034593421     12.02992    4456.6979   -313691.28   -40101.893 
   21800         2.18    523.35043 2.7221604e-05 0.00013519807     11.90111    4417.9433   -314082.83   -39670.907 
   22000          2.2    521.38736 2.7098127e-05 0.00011846949    11.839139    4401.3718   -314487.19   -39464.283 
   22200         2.22    518.39395 0.00023663929 0.00016515867    11.769091    4376.1024   -314870.87   -39231.641 
   22400         2.24    513.97751 -0.00020488138 -0.00013371936     11.51942    4338.8203   -315246.54   -38396.937 
   22600         2.26    510.20574 0.0001974794 0.00036539487    11.493573    4306.9803   -315608.61   -38313.787 
   22800         2.28    509.73707 1.3490345e-06 -8.7203455e-05    11.329589     4303.024   -315992.62   -37765.012 
   23000          2.3    507.16807 0.00045817352 0.00059690726    11.252309    4281.3374   -316363.27   -37511.215 
   23200         2.32    506.23567 6.8102388e-05 -8.3199033e-05    11.282205    4273.4664   -316734.62   -37607.299 
   23400         2.34    503.84053 0.00043750265 0.00029538025    11.179542    4253.2474   -317101.91   -37267.584 
   23600         2.36    499.65513 0.0003188935 -5.3149589e-05    11.163585    4217.9157   -317437.21   -37212.835 
   23800         2.38    494.92675 -0.00039632724 -0.00059120209    11.076104    4178.0004   -317726.75   -36917.055 
   24000          2.4    497.09303 0.00049861917 0.00053542011    10.972673    4196.2874   -318084.51   -36579.022 
   24200         2.42    498.57014 -0.00033936692 -1.8959705e-05    10.950217    4208.7566   -318470.11   -36499.528 
   24400         2.44    498.04033 -0.00010638909 -2.2576707e-05    10.958507    4204.2842   -318839.43   -36527.927 
   24600         2.46    495.89345 0.00027255773 0.00043758124    10.850212    4186.1609   -319199.84   -36169.741 
   24800         2.48     490.7754 1.6794482e-05 -0.00021069054    10.714022    4142.9562   -319526.54   -35712.759 
   25000          2.5    486.60094 0.00074443007 0.00054813198    10.696115    4107.7168   -319828.07   -35658.025 
Loop time of 5710.53 on 1 procs for 25000 steps with 2833 atoms

Performance: 0.004 ns/day, 6345.029 hours/ns, 4.378 timesteps/s
98.8% CPU use with 1 MPI tasks x 1 OpenMP threads

MPI task timing breakdown:
Section |  min time  |  avg time  |  max time  |%varavg| %total
---------------------------------------------------------------
Pair    | 4724.3     | 4724.3     | 4724.3     |   0.0 | 82.73
Neigh   | 2.4339     | 2.4339     | 2.4339     |   0.0 |  0.04
Comm    | 1.0062     | 1.0062     | 1.0062     |   0.0 |  0.02
Output  | 9.5189     | 9.5189     | 9.5189     |   0.0 |  0.17
Modify  | 972.81     | 972.81     | 972.81     |   0.0 | 17.04
Other   |            | 0.4193     |            |       |  0.01

Nlocal:    2833 ave 2833 max 2833 min
Histogram: 1 0 0 0 0 0 0 0 0 0
Nghost:    7715 ave 7715 max 7715 min
Histogram: 1 0 0 0 0 0 0 0 0 0
Neighs:    339851 ave 339851 max 339851 min
Histogram: 1 0 0 0 0 0 0 0 0 0
FullNghs:  656734 ave 656734 max 656734 min
Histogram: 1 0 0 0 0 0 0 0 0 0

Total # of neighbors = 656734
Ave neighs/atom = 231.816
Neighbor list builds = 130
Dangerous builds = 0

######################################
# SIMULATION DONE
print "All done"
All done

Please see the log.cite file for references relevant to this simulation

Total wall time: 2:09:49
