LAMMPS data file for 20 A silica coating on SiNW, created by AMAL M S, on 28-NOV-2020

3983 atoms
2 atom types


0.00 50.00  xlo xhi
0.00 50.00  ylo yhi
0.00 50.00  zlo zhi

Masses 

1 28.0855
2 15.9994

Atoms

1	2	-0.65	20.2603	6.7242	0.04777835
2	1	1.3	27.00455	5.85965	2.01656
3	2	-0.65	27.62855	6.71465	0.779465
4	2	-0.65	14.86495	8.06735	1.559445
5	1	1.3	16.0326	9.14405	1.845595
6	2	-0.65	16.6257	9.98785	0.61037
7	2	-0.65	17.3599	8.342	2.39966
8	2	-0.65	22.02495	8.38945	1.14594
9	1	1.3	23.3246	8.8905	1.939695
10	2	-0.65	24.62285	9.3597	1.01139
11	2	-0.65	29.22565	9.55025	2.286045
12	2	-0.65	29.9504	7.7056	0.463201
13	2	-0.65	31.74875	8.6895	2.3384
14	1	1.3	30.4545	8.9971	1.354835
15	2	-0.65	36.2531	9.77515	2.345215
16	2	-0.65	38.16885	9.99045	0.66706
17	2	-0.65	12.17105	11.3981	0.373087
18	2	-0.65	13.90485	12.2156	2.03115
19	2	-0.65	19.08745	10.99905	0.87477
20	1	1.3	19.7264	11.98835	1.98567
21	1	1.3	26.7796	12.4891	1.01999
22	2	-0.65	28.10405	11.90155	1.832585
23	2	-0.65	31.0501	10.154	0.349246
24	2	-0.65	32.93505	11.83075	1.26772
25	2	-0.65	35.30435	12.16925	2.44565
26	2	-0.65	39.94865	11.95685	1.50833
27	2	-0.65	11.51935	13.6229	1.717655
28	1	1.3	12.78505	12.81115	1.0405
29	2	-0.65	13.46765	13.83595	0.004633655
30	2	-0.65	18.59375	13.1199	2.38098
31	2	-0.65	20.90295	12.8801	1.335845
32	2	-0.65	22.7119	14.64445	0.2384945
33	2	-0.65	25.55485	12.8341	2.083435
34	2	-0.65	27.322	13.8126	0.301227
35	2	-0.65	29.7297	14.94455	0.602565
36	1	1.3	33.94965	12.9143	1.88927
37	2	-0.65	34.4631	13.88915	0.649935
38	2	-0.65	37.07845	14.8168	0.62908
39	2	-0.65	7.57225	15.4448	1.614595
40	1	1.3	8.80165	16.4248	1.99038
41	2	-0.65	9.37875	17.1717	0.60732
42	2	-0.65	15.0112	15.68315	1.10861
43	1	1.3	16.17535	16.29465	2.05649
44	2	-0.65	17.1177	17.2381	1.113375
45	2	-0.65	22.04475	16.57785	1.94494
46	1	1.3	23.29995	15.7733	1.25013
47	2	-0.65	24.0402	16.82235	0.2786685
48	2	-0.65	24.35735	15.23385	2.425195
49	1	1.3	30.3195	16.1078	1.58528
50	2	-0.65	31.00725	17.36935	0.75792
51	2	-0.65	31.55845	15.3648	2.3055
52	1	1.3	37.62125	15.9695	1.688345
53	2	-0.65	38.14965	17.0925	0.668475
54	2	-0.65	6.70965	19.4088	2.196605
55	2	-0.65	11.859	18.09735	1.210685
56	1	1.3	10.7635	17.8532	0.0099947
57	1	1.3	12.6116	19.1239	2.25311
58	2	-0.65	13.86555	19.8757	1.52608
59	1	1.3	19.5781	19.71885	0.79531
60	2	-0.65	21.0152	19.06165	1.41444
61	2	-0.65	33.40715	18.4587	0.48267
62	1	1.3	34.01045	19.3785	1.650765
63	2	-0.65	40.5853	18.0894	0.799835
64	1	1.3	41.19135	19.1745	1.890735
65	2	-0.65	6.04185	20.83335	0.096987
66	1	1.3	14.35345	21.0271	0.539775
67	2	-0.65	14.8511	22.32355	1.53507
68	2	-0.65	17.4115	22.4575	2.18714
69	2	-0.65	18.5833	20.1011	1.999335
70	2	-0.65	32.86235	20.3759	2.37043
71	2	-0.65	35.29715	20.15555	0.954
72	1	1.3	35.9	21.51795	0.239988
73	2	-0.65	40.0368	20.2597	2.277505
74	2	-0.65	42.3991	20.11065	1.343005
75	1	1.3	42.828	21.47735	0.507575
76	2	-0.65	7.69425	22.75145	1.10664
77	1	1.3	8.8951	23.29355	2.032
78	2	-0.65	10.0735	24.0205	1.20862
79	1	1.3	16.07825	23.35085	1.75491
80	2	-0.65	16.55155	24.19275	0.4484355
81	1	1.3	32.253	24.6141	0.3181365
82	2	-0.65	36.30185	22.7731	1.21237
83	1	1.3	37.51165	23.7273	1.895395
84	2	-0.65	38.0289	24.65355	0.670385
85	2	-0.65	38.77005	22.7759	2.34892
86	2	-0.65	43.21845	22.70665	1.55337
87	1	1.3	44.4891	23.25025	2.485065
88	2	-0.65	6.39885	27.3461	1.588145
89	2	-0.65	12.0665	25.57975	0.2264615
90	2	-0.65	11.594	27.23335	2.138565
91	1	1.3	12.71015	26.8078	1.06809
92	2	-0.65	13.99425	26.25255	1.88462
93	2	-0.65	33.4512	25.3407	1.15143
94	1	1.3	33.88865	26.61135	2.074585
95	2	-0.65	34.99865	27.4016	1.156825
96	2	-0.65	39.8337	26.49025	1.434535
97	1	1.3	39.31225	25.50315	0.21403
98	1	1.3	41.13275	27.32915	2.022665
99	1	1.3	7.1728	28.33295	0.518825
100	2	-0.65	7.72945	29.63295	1.326035
101	2	-0.65	10.2472	29.4457	2.218515
102	2	-0.65	14.67145	29.72935	1.05104
103	2	-0.65	13.2079	27.99645	0.076789
104	2	-0.65	31.5352	29.73415	2.113975
105	2	-0.65	32.62325	27.523	2.41838
106	2	-0.65	36.1498	29.90225	1.60578
107	1	1.3	35.598	28.76375	0.52427
108	2	-0.65	41.6962	28.26165	0.81064
109	2	-0.65	44.10725	29.5688	0.304773
110	1	1.3	9.0337	30.46035	1.85317
111	2	-0.65	9.6182	31.4531	0.630385
112	1	1.3	15.94595	30.25515	1.96774
113	2	-0.65	17.2045	30.6445	0.957275
114	2	-0.65	18.9762	32.3997	0.272573
115	2	-0.65	26.26425	32.43885	0.619885
116	1	1.3	30.4346	30.78	1.65148
117	2	-0.65	30.95725	31.82745	0.471211
118	2	-0.65	38.801	30.70145	1.712225
119	1	1.3	39.3902	31.56375	0.4726795
120	2	-0.65	40.6721	32.48045	0.94894
121	1	1.3	10.6671	32.62205	0.0984455
122	2	-0.65	11.24935	33.18875	1.506405
123	1	1.3	12.48415	33.7478	2.41609
124	2	-0.65	13.7812	34.246	1.53094
125	1	1.3	19.67675	33.6972	1.07877
126	2	-0.65	18.4863	34.3295	1.932945
127	2	-0.65	20.98695	33.1476	1.83546
128	2	-0.65	20.1561	34.98805	0.2707565
129	1	1.3	26.79005	33.4978	1.77134
130	2	-0.65	25.60395	34.54985	2.20957
131	2	-0.65	27.93375	34.5359	1.199755
132	1	1.3	34.0257	34.38815	1.888705
133	2	-0.65	32.7348	33.6525	1.270295
134	2	-0.65	35.1212	33.28935	2.439275
135	2	-0.65	39.76925	34.58565	2.216975
136	1	1.3	41.12475	33.7702	1.83254
137	2	-0.65	42.21235	34.7122	1.084045
138	1	1.3	14.4681	35.3556	0.53666
139	2	-0.65	14.99495	36.6351	1.425825
140	2	-0.65	17.50955	36.7166	2.46196
141	2	-0.65	22.0694	36.90775	1.04832
142	2	-0.65	24.56095	37.02845	2.02689
143	2	-0.65	29.82005	36.238	0.906655
144	1	1.3	28.59325	35.533	0.1111395
145	1	1.3	30.341	37.16315	2.11129
146	2	-0.65	34.621	35.325	0.64983
147	2	-0.65	38.72885	36.90975	1.794735
148	2	-0.65	10.1191	38.25325	1.505745
149	1	1.3	16.20715	37.54085	1.99044
150	2	-0.65	16.5235	38.59695	0.84132
151	1	1.3	17.78655	39.3515	0.0588055
152	1	1.3	23.26585	37.9212	1.482805
153	2	-0.65	23.781	38.9623	0.3349595
154	2	-0.65	29.09895	38.1805	2.314425
155	2	-0.65	31.5332	38.08965	1.548405
156	1	1.3	32.13245	38.8513	0.2255655
157	2	-0.65	33.40315	39.7863	0.62861
158	2	-0.65	36.26715	38.08245	2.046165
159	1	1.3	37.3882	37.54215	1.040515
160	2	-0.65	37.9357	38.7725	0.1880425
161	2	-0.65	18.6216	40.4424	0.92147
162	1	1.3	19.8317	41.03025	1.90172
163	2	-0.65	21.1007	41.6545	1.12168
164	2	-0.65	26.0855	40.1108	0.077655
165	1	1.3	26.6319	41.0894	1.237065
166	2	-0.65	27.25545	42.49875	0.67674
167	2	-0.65	25.46985	41.2865	2.416125
168	2	-0.65	27.9681	40.46445	1.97446
169	1	1.3	34.031	40.81105	1.76349
170	2	-0.65	32.77315	41.82705	2.097795
171	2	-0.65	35.2014	41.72585	1.2077
172	1	1.3	21.65235	42.85035	0.1965175
173	2	-0.65	22.22855	43.96575	1.197965
174	1	1.3	23.4302	44.49435	2.155415
175	2	-0.65	24.542	44.87415	1.018125
176	2	-0.65	29.08965	44.488	0.383759
177	1	1.3	17.94865	6.9884	3.08038
178	2	-0.65	19.1961	7.2385	4.146825
179	2	-0.65	26.51725	6.8404	3.19239
180	1	1.3	25.18745	7.32905	3.96651
181	2	-0.65	31.18255	6.579	3.979005
182	2	-0.65	20.9982	9.18925	4.95679
183	2	-0.65	24.02085	7.77365	2.92165
184	2	-0.65	25.68405	8.72325	4.62912
185	1	1.3	32.3579	7.57175	3.439115
186	2	-0.65	32.8782	8.39465	4.696255
187	2	-0.65	13.00155	10.8923	4.15442
188	1	1.3	14.33685	11.37025	3.38841
189	2	-0.65	15.06475	12.35225	4.47858
190	2	-0.65	15.4718	10.1896	3.00276
191	2	-0.65	20.38645	11.2717	3.319645
192	1	1.3	21.568	10.43575	4.08883
193	2	-0.65	22.70285	10.07015	2.94102
194	2	-0.65	27.49805	10.6471	4.15953
195	1	1.3	28.65535	10.8854	3.031485
196	2	-0.65	29.8976	11.5094	3.882355
197	2	-0.65	34.6119	10.3533	4.32021
198	1	1.3	35.78775	10.90775	3.36749
199	2	-0.65	37.1054	11.4891	4.195685
200	2	-0.65	9.8077	13.12275	3.678945
201	1	1.3	10.81675	14.25675	3.054715
202	2	-0.65	12.01285	14.59925	4.093895
203	2	-0.65	17.44285	13.57085	4.795365
204	1	1.3	18.0739	14.2505	3.451535
205	2	-0.65	23.8264	13.1163	3.81864
206	1	1.3	25.03305	13.9563	3.08144
207	2	-0.65	26.19835	14.3532	4.15997
208	2	-0.65	30.8535	13.98455	4.492245
209	1	1.3	32.0772	14.70605	3.67391
210	2	-0.65	33.2451	13.6565	3.21554
211	1	1.3	39.45145	14.6289	3.801405
212	2	-0.65	38.18815	13.85645	4.523575
213	2	-0.65	40.62705	13.57485	3.413665
214	2	-0.65	8.30545	17.4613	3.154605
215	2	-0.65	9.99045	15.61975	2.66159
216	2	-0.65	16.8532	15.00405	2.69474
217	2	-0.65	15.6151	17.23135	3.30206
218	2	-0.65	19.28785	15.2694	3.732115
219	1	1.3	19.74455	16.49865	4.658575
220	2	-0.65	29.12075	16.67515	2.522005
221	2	-0.65	27.9478	16.06505	4.83397
222	1	1.3	28.47385	17.32325	3.91677
223	2	-0.65	32.79975	15.85805	4.612535
224	2	-0.65	36.40375	16.48215	2.601185
225	2	-0.65	35.12565	17.01565	4.90546
226	2	-0.65	38.93475	15.4585	2.51123
227	2	-0.65	39.94975	15.7032	4.95704
228	1	1.3	7.25635	18.6245	3.550095
229	2	-0.65	7.9158	19.6541	4.684615
230	1	1.3	14.38635	17.69485	4.368775
231	2	-0.65	13.18885	18.2533	3.480945
232	2	-0.65	20.3298	17.6904	3.701295
233	1	1.3	21.51275	17.97065	2.553995
234	2	-0.65	29.8389	18.08315	4.459665
235	2	-0.65	34.5735	18.3509	2.73205
236	1	1.3	35.8154	17.6481	3.53868
237	2	-0.65	36.9854	18.7927	3.91522
238	2	-0.65	41.67955	18.17985	3.086045
239	1	1.3	42.93395	17.79215	4.146425
240	2	-0.65	9.57875	22.12885	3.01941
241	2	-0.65	11.5891	20.261	2.655145
242	1	1.3	10.85855	21.33375	3.678315
243	2	-0.65	12.07825	22.31135	4.168805
244	2	-0.65	10.3114	20.5906	4.99374
245	2	-0.65	16.8379	20.47425	3.89915
246	1	1.3	18.0449	21.23095	3.04849
247	2	-0.65	31.6861	20.018	4.841135
248	1	1.3	32.35595	21.08125	3.7682
249	2	-0.65	33.60135	21.79875	4.443145
250	1	1.3	39.569	21.5474	3.171085
251	2	-0.65	38.5272	20.93995	4.32737
252	2	-0.65	40.6741	22.2206	4.19336
253	1	1.3	7.09095	24.85745	4.1088
254	2	-0.65	6.6732	23.51035	4.94698
255	2	-0.65	8.25105	24.48405	3.014225
256	1	1.3	12.56225	23.6582	4.996835
257	2	-0.65	13.1384	24.7894	3.935695
258	2	-0.65	15.5745	24.31775	2.93497
259	2	-0.65	35.2158	23.8025	4.62497
260	2	-0.65	36.9484	24.804	3.009505
261	2	-0.65	41.5295	24.7847	4.60658
262	2	-0.65	43.96905	24.4243	3.46541
263	1	1.3	5.25025	26.8549	2.602325
264	2	-0.65	5.78315	25.5522	3.41817
265	2	-0.65	9.6203	27.4199	3.95011
266	1	1.3	14.44655	25.42415	3.245805
267	2	-0.65	15.1171	26.5216	4.28093
268	2	-0.65	34.56255	26.08385	3.47957
269	1	1.3	35.75765	25.25245	4.1411
270	2	-0.65	42.2689	26.3174	2.58662
271	1	1.3	42.80725	25.49895	3.85758
272	1	1.3	10.7811	28.17685	3.15689
273	2	-0.65	11.932	28.73385	4.105345
274	2	-0.65	17.3774	27.5554	4.79928
275	2	-0.65	16.5956	29.06285	2.96774
276	1	1.3	17.97505	28.38825	3.54558
277	2	-0.65	19.10615	29.5312	3.889395
278	1	1.3	32.1096	28.81805	3.255975
279	2	-0.65	33.2861	29.6419	3.95516
280	2	-0.65	37.88445	29.05745	3.630885
281	1	1.3	39.19155	28.39005	4.356675
282	2	-0.65	40.4961	28.08035	3.367055
283	1	1.3	7.23365	32.41245	3.407305
284	2	-0.65	8.52505	31.4866	2.99158
285	1	1.3	14.33495	31.91545	4.141695
286	2	-0.65	13.84115	30.54385	4.85596
287	2	-0.65	15.44975	31.45765	2.990785
288	1	1.3	19.71985	30.6313	4.84685
289	2	-0.65	20.28015	31.9859	4.0585
290	2	-0.65	29.8243	31.67855	2.88902
291	1	1.3	28.57175	32.06065	3.9137
292	2	-0.65	34.5227	31.89165	4.559775
293	1	1.3	37.40905	30.2404	2.54123
294	2	-0.65	36.9502	31.5836	3.388325
295	2	-0.65	41.8635	30.84325	4.746885
296	2	-0.65	43.35765	31.1713	2.50828
297	1	1.3	42.74255	31.9262	3.84669
298	2	-0.65	7.755	33.4934	4.54968
299	2	-0.65	13.0878	32.62965	3.410435
300	2	-0.65	16.72855	34.66635	4.041555
301	1	1.3	21.527	32.5651	3.28341
302	2	-0.65	22.11015	33.8057	4.133345
303	2	-0.65	27.28915	32.6611	3.098515
304	2	-0.65	31.66985	34.31665	4.97878
305	1	1.3	35.73775	32.6226	3.81709
306	2	-0.65	36.52805	33.64315	4.814315
307	2	-0.65	41.7598	33.10445	3.20589
308	2	-0.65	9.5483	36.32285	3.269555
309	2	-0.65	11.9551	35.0591	3.24676
310	1	1.3	10.8346	35.7284	4.1832
311	2	-0.65	11.39035	37.00975	4.92931
312	1	1.3	18.03845	35.2975	3.22422
313	2	-0.65	19.19005	35.65245	4.335845
314	2	-0.65	24.13405	35.5823	4.20537
315	1	1.3	25.2202	35.9226	3.00853
316	2	-0.65	26.49135	36.587	3.75305
317	1	1.3	32.2397	35.6125	4.1527
318	2	-0.65	30.97555	36.3183	3.38714
319	2	-0.65	33.48045	35.2543	3.188595
320	2	-0.65	38.0133	35.59145	3.92348
321	1	1.3	39.29675	35.93205	2.93251
322	2	-0.65	40.50655	36.66005	3.73467
323	1	1.3	14.4058	39.25055	3.878475
324	2	-0.65	13.85615	38.1108	4.920135
325	2	-0.65	13.25895	39.80835	2.862
326	2	-0.65	15.73355	38.534	3.19835
327	1	1.3	21.53395	39.10065	3.79569
328	2	-0.65	20.93065	37.7205	4.45162
329	2	-0.65	20.3464	39.81205	2.871765
330	2	-0.65	22.7483	38.79385	2.73885
331	2	-0.65	27.4621	39.0556	4.27809
332	1	1.3	26.95915	37.65095	4.96604
333	1	1.3	28.6131	39.50825	3.141255
334	2	-0.65	34.57355	39.9482	3.040305
335	2	-0.65	35.1306	37.89865	4.54696
336	1	1.3	35.76935	38.9036	3.4272
337	2	-0.65	36.99685	39.75345	4.08386
338	2	-0.65	14.967	40.43755	4.78619
339	2	-0.65	16.73805	42.18545	3.949335
340	2	-0.65	19.23195	42.2117	2.90595
341	2	-0.65	22.01435	40.2397	4.84693
342	1	1.3	24.9874	42.32755	3.592185
343	2	-0.65	24.45675	41.4211	4.835935
344	2	-0.65	29.92355	40.2925	3.855055
345	1	1.3	30.40205	41.49815	4.79198
346	1	1.3	17.9614	43.17345	3.332615
347	2	-0.65	23.8268	43.1826	2.94792
348	2	-0.65	26.22155	43.30795	4.115055
349	2	-0.65	30.9945	42.7229	3.894565
350	1	1.3	32.0923	43.13235	2.799985
351	2	-0.65	20.3335	7.18595	6.5455
352	2	-0.65	24.5677	6.27915	5.0522
353	2	-0.65	22.62145	5.94135	6.98375
354	1	1.3	23.29515	5.3699	5.55715
355	2	-0.65	27.4702	6.59495	7.221
356	2	-0.65	29.93	7.04705	6.3397
357	1	1.3	30.50105	5.9009	5.26955
358	1	1.3	12.5137	9.734	5.17275
359	2	-0.65	13.8022	8.8462	5.57575
360	1	1.3	19.80795	8.15545	5.36445
361	2	-0.65	18.56165	9.0798	5.8636
362	1	1.3	26.85935	9.6561	5.20805
363	2	-0.65	28.1251	8.7122	5.7759
364	1	1.3	28.5958	7.7659	6.9847
365	1	1.3	34.0407	9.269	5.46605
366	2	-0.65	33.3111	9.88305	6.7662
367	2	-0.65	35.28315	8.24095	5.883
368	2	-0.65	10.15785	12.19695	6.16065
369	1	1.3	10.6956	11.1722	7.26445
370	2	-0.65	11.8721	10.2853	6.59095
371	2	-0.65	16.81685	11.14505	5.99
372	1	1.3	17.94215	10.3026	6.7483
373	2	-0.65	19.1027	11.40955	7.0557
374	2	-0.65	22.24025	11.4695	5.16505
375	2	-0.65	24.622	12.28575	6.18305
376	1	1.3	25.2581	11.18685	7.26815
377	2	-0.65	26.42045	10.4739	6.51
378	2	-0.65	31.63535	11.7591	5.78245
379	1	1.3	32.20465	11.0833	7.13965
380	2	-0.65	38.8018	11.90805	6.1512
381	2	-0.65	13.1758	14.24915	6.48595
382	1	1.3	16.3088	12.6171	5.51775
383	2	-0.65	15.6531	13.33475	6.8225
384	1	1.3	21.42265	14.91255	6.5895
385	2	-0.65	20.12545	13.983	6.91715
386	2	-0.65	22.76455	14.039	6.10405
387	1	1.3	23.30845	12.75345	5.2651
388	2	-0.65	27.35155	14.2435	6.71545
389	2	-0.65	29.3989	12.7475	6.3953
390	1	1.3	28.7054	13.7387	7.4288
391	1	1.3	30.38615	12.5272	5.085
392	2	-0.65	36.30085	13.06495	6.25065
393	1	1.3	35.70405	14.1338	7.3332
394	1	1.3	37.5685	12.6154	5.37525
395	2	-0.65	41.5736	14.58115	6.6494
396	2	-0.65	11.24345	16.14345	6.13685
397	1	1.3	10.76335	17.44055	7.0339
398	1	1.3	12.4995	15.38515	5.43335
399	2	-0.65	13.7375	16.4502	5.20395
400	2	-0.65	18.3552	16.95775	5.4576
401	2	-0.65	21.0114	16.05235	5.5695
402	1	1.3	26.76025	15.13535	5.4939
403	2	-0.65	25.5449	16.1863	5.7965
404	2	-0.65	34.5	15.00385	6.5869
405	1	1.3	33.9381	16.2144	5.72765
406	2	-0.65	33.34695	17.43625	6.65145
407	2	-0.65	42.37475	16.61725	5.16405
408	1	1.3	41.1451	16.0435	6.0573
409	2	-0.65	40.3896	17.0408	7.1297
410	1	1.3	9.10535	19.83865	5.7476
411	2	-0.65	9.59315	18.3682	6.27965
412	2	-0.65	12.03755	18.33035	7.40215
413	2	-0.65	15.01905	18.8551	5.31405
414	2	-0.65	17.19515	19.2866	6.27435
415	1	1.3	17.67955	17.786	6.71945
416	1	1.3	25.07725	17.58265	6.5115
417	1	1.3	30.40825	19.24465	5.4814
418	2	-0.65	30.87735	18.4863	6.86475
419	1	1.3	37.71725	19.70895	5.01675
420	1	1.3	39.22525	18.21005	7.20905
421	2	-0.65	38.87635	18.79385	5.72185
422	2	-0.65	43.38245	19.05625	5.03285
423	2	-0.65	5.9709	21.63855	6.6894
424	2	-0.65	8.4452	20.6532	7.0147
425	1	1.3	14.2847	21.9481	6.9871
426	2	-0.65	13.3079	20.6664	7.13415
427	1	1.3	16.1484	20.0907	5.33565
428	2	-0.65	15.51115	21.41355	6.0723
429	2	-0.65	34.9839	22.2271	6.67505
430	2	-0.65	36.55815	20.12785	6.1266
431	1	1.3	35.90685	20.98945	7.32015
432	2	-0.65	44.00305	20.7907	7.0632
433	1	1.3	42.9309	21.9688	7.389
434	1	1.3	5.4608	22.64865	5.48575
435	2	-0.65	11.27655	24.30085	5.6916
436	2	-0.65	13.61685	23.19605	6.1774
437	1	1.3	17.8396	24.6467	6.835
438	1	1.3	34.10815	22.937	5.49705
439	2	-0.65	32.8332	23.7688	6.00785
440	2	-0.65	39.8081	23.86265	6.304
441	2	-0.65	42.3814	22.9421	6.19595
442	1	1.3	41.04135	23.40795	5.35585
443	2	-0.65	7.7455	25.95305	5.20385
444	1	1.3	8.9133	27.0388	5.4137
445	2	-0.65	9.93125	26.4361	6.4734
446	1	1.3	10.6766	25.08295	7.0063
447	1	1.3	16.0986	26.7813	5.50205
448	2	-0.65	16.60515	25.3688	6.11475
449	1	1.3	32.1656	25.1382	6.6799
450	2	-0.65	33.2406	26.07785	7.34925
451	2	-0.65	36.35585	25.97105	5.5158
452	1	1.3	37.49035	26.76065	6.3789
453	2	-0.65	38.6944	27.2552	5.38615
454	2	-0.65	38.021	25.6397	7.42265
455	2	-0.65	43.36335	26.4981	5.0031
456	1	1.3	6.9943	28.91715	7.06
457	2	-0.65	5.7992	27.9076	7.4436
458	2	-0.65	8.24385	28.2502	6.248
459	1	1.3	12.49915	29.70575	5.3364
460	2	-0.65	12.9718	28.6849	6.50885
461	2	-0.65	15.50455	27.83245	6.57115
462	2	-0.65	35.11735	29.72335	6.00455
463	2	-0.65	36.94825	28.11305	7.1499
464	1	1.3	35.6351	29.1269	7.4071
465	2	-0.65	39.7206	29.59345	5.3076
466	2	-0.65	41.43385	29.5564	7.09125
467	1	1.3	44.52245	27.5577	5.4677
468	2	-0.65	43.9325	28.57335	6.5
469	2	-0.65	6.56435	30.1284	5.99065
470	2	-0.65	11.34745	30.8294	5.74415
471	1	1.3	10.65235	31.6481	6.98045
472	2	-0.65	18.47285	31.08015	5.8204
473	1	1.3	17.8568	32.054	6.96335
474	1	1.3	24.99035	32.2432	6.40785
475	1	1.3	33.9077	30.49805	5.20255
476	2	-0.65	32.6308	30.68675	6.26875
477	1	1.3	40.8304	30.5729	5.95745
478	2	-0.65	40.44185	32.02475	6.552
479	2	-0.65	9.37585	32.50835	6.4231
480	2	-0.65	8.16835	34.85965	6.9453
481	1	1.3	8.78495	33.8962	5.7419
482	2	-0.65	10.12015	34.5885	5.1359
483	2	-0.65	15.01625	32.99165	5.1885
484	1	1.3	16.12135	34.1071	5.44735
485	2	-0.65	17.28405	33.44975	6.32905
486	1	1.3	23.3007	34.51815	5.06295
487	2	-0.65	24.3943	33.3665	5.33405
488	2	-0.65	26.29975	32.9393	7.17745
489	2	-0.65	29.08945	33.11215	5.06935
490	2	-0.65	30.98545	32.6445	6.9213
491	1	1.3	30.37685	33.73715	5.8377
492	1	1.3	37.57325	34.8031	5.27105
493	1	1.3	39.4207	33.1185	7.2583
494	2	-0.65	38.85195	34.08555	6.0396
495	2	-0.65	13.1381	36.63745	6.8531
496	1	1.3	14.3942	35.69085	7.43095
497	2	-0.65	15.53705	35.3358	6.3562
498	1	1.3	19.75195	36.8854	5.24785
499	2	-0.65	20.3056	36.2026	6.65025
500	2	-0.65	22.76775	35.23075	6.44565
501	2	-0.65	29.97295	35.1561	6.58075
502	2	-0.65	28.16495	36.95325	5.74105
503	1	1.3	28.6677	36.04035	7.0552
504	2	-0.65	32.8183	36.67185	5.29315
505	2	-0.65	34.7291	36.9597	7.0397
506	2	-0.65	36.86195	35.76025	6.35685
507	2	-0.65	11.9606	38.91795	6.7099
508	1	1.3	12.5854	37.7032	5.81545
509	2	-0.65	16.66865	38.49215	7.3912
510	2	-0.65	18.69205	38.0468	5.6278
511	1	1.3	17.9292	39.07095	6.61495
512	2	-0.65	23.8505	39.61175	6.59765
513	1	1.3	25.06375	38.69175	7.24965
514	2	-0.65	25.70325	37.82345	6.0165
515	1	1.3	32.217	39.9765	6.81515
516	2	-0.65	30.963	39.01815	7.45215
517	1	1.3	34.0638	37.6538	5.76885
518	2	-0.65	33.42795	39.06105	6.18335
519	2	-0.65	38.05085	39.4376	6.64565
520	1	1.3	39.26405	38.6276	7.327
521	2	-0.65	39.88375	37.673	6.18555
522	1	1.3	16.20655	41.3292	5.22695
523	2	-0.65	17.4088	40.34405	5.76
524	2	-0.65	15.65985	42.2968	6.4271
525	2	-0.65	22.63095	42.04285	6.7229
526	1	1.3	23.2058	40.8621	5.732
527	2	-0.65	29.1505	41.82715	5.7751
528	2	-0.65	31.63795	41.0277	5.72025
529	2	-0.65	36.23335	41.34035	6.1815
530	1	1.3	37.41005	40.43055	5.51875
531	1	1.3	21.38555	43.04535	7.07925
532	2	-0.65	20.7322	43.78895	5.81725
533	1	1.3	26.729	44.5411	5.0087
534	2	-0.65	27.77015	44.1127	6.1793
535	1	1.3	28.4501	42.85535	6.8625
536	1	1.3	21.4802	6.8718	7.6572
537	2	-0.65	20.73685	5.9553	8.77555
538	2	-0.65	25.57195	6.1136	8.97715
539	1	1.3	26.86285	5.4453	8.2685
540	2	-0.65	14.8907	8.5365	8.0015
541	1	1.3	16.13155	9.16975	8.94435
542	2	-0.65	17.4015	9.69265	8.0702
543	2	-0.65	16.6956	7.93055	9.89115
544	2	-0.65	21.9873	8.2685	8.2738
545	2	-0.65	24.1944	9.9908	7.5691
546	2	-0.65	24.36705	8.3859	9.63555
547	1	1.3	23.26745	9.1938	8.6788
548	2	-0.65	29.0739	8.49275	8.34765
549	1	1.3	30.19265	9.46685	9.04005
550	2	-0.65	31.51955	8.6302	9.5465
551	2	-0.65	36.50605	9.04885	9.74615
552	2	-0.65	11.2084	12.0364	8.49695
553	1	1.3	12.4128	12.49875	9.56335
554	2	-0.65	15.4389	10.2963	9.9959
555	2	-0.65	20.84675	12.2282	8.7369
556	1	1.3	21.372	11.29655	9.97905
557	2	-0.65	22.6382	10.4494	9.54625
558	2	-0.65	25.69125	12.0889	8.5997
559	1	1.3	26.88495	12.4595	9.66245
560	2	-0.65	30.85185	10.31795	7.80325
561	2	-0.65	32.65865	12.1326	8.31025
562	2	-0.65	34.52285	10.98655	9.7341
563	1	1.3	33.89835	12.49955	9.3256
564	2	-0.65	39.77035	11.61655	8.65735
565	2	-0.65	8.29625	14.83505	7.773
566	1	1.3	14.315	13.9003	7.5814
567	2	-0.65	13.74	12.9195	8.7499
568	1	1.3	19.6186	12.775	7.8654
569	2	-0.65	18.274	13.24715	8.648
570	1	1.3	17.7086	14.0667	9.96205
571	2	-0.65	28.19745	12.8894	8.7751
572	2	-0.65	29.62555	14.9972	7.83
573	2	-0.65	30.99155	14.4046	9.94525
574	2	-0.65	35.09475	13.46315	8.6878
575	2	-0.65	40.419	13.8365	9.932
576	1	1.3	8.8825	15.7772	8.97345
577	2	-0.65	7.67105	16.60225	9.67145
578	2	-0.65	10.0842	16.77985	8.39665
579	2	-0.65	14.75335	15.26195	8.38895
580	2	-0.65	17.0798	15.5309	9.46075
581	1	1.3	15.8608	16.3799	8.80975
582	2	-0.65	16.4524	17.14295	7.5027
583	2	-0.65	21.8971	15.7347	7.9271
584	2	-0.65	22.49845	17.3098	9.8906
585	1	1.3	23.18105	16.39915	8.7101
586	2	-0.65	24.2618	15.44885	9.4433
587	2	-0.65	23.97795	17.43665	7.6886
588	2	-0.65	29.2201	16.4845	9.73075
589	1	1.3	30.45715	15.6407	9.0617
590	2	-0.65	31.688	16.4977	8.54975
591	2	-0.65	36.9334	15.11895	7.79595
592	1	1.3	37.3598	16.31335	8.8294
593	2	-0.65	36.0661	16.5104	9.78685
594	2	-0.65	38.6243	15.846	9.7014
595	2	-0.65	43.1089	16.53885	9.4755
596	1	1.3	12.5791	19.66465	8.14875
597	2	-0.65	13.8254	19.2312	9.0975
598	2	-0.65	18.81105	18.06535	7.85915
599	1	1.3	19.52155	19.0606	8.9911
600	1	1.3	32.1002	17.8362	7.66605
601	2	-0.65	32.5183	19.04035	8.6774
602	1	1.3	33.79475	19.76885	9.461
603	2	-0.65	37.86075	17.59015	7.88105
604	2	-0.65	39.7287	19.42785	8.19085
605	2	-0.65	42.1734	19.0693	9.23265
606	2	-0.65	6.6282	20.296	8.8663
607	1	1.3	7.12645	21.3055	7.7307
608	2	-0.65	11.49925	20.64635	8.878
609	2	-0.65	18.43905	20.1517	9.44895
610	2	-0.65	34.9576	20.1111	8.39065
611	2	-0.65	37.1192	21.7266	8.18985
612	1	1.3	40.9438	20.1638	9.0454
613	2	-0.65	41.6291	21.2275	8.0066
614	2	-0.65	7.59335	22.6604	8.5052
615	1	1.3	8.87265	23.5014	9.0118
616	2	-0.65	9.5532	24.02195	7.66345
617	2	-0.65	9.84005	22.51595	9.90455
618	2	-0.65	8.3556	24.82535	9.8354
619	2	-0.65	14.91255	22.58255	8.35865
620	2	-0.65	17.37555	24.0483	8.32465
621	1	1.3	16.10815	23.34315	9.12155
622	2	-0.65	15.36095	24.6015	9.8459
623	2	-0.65	36.3893	23.73065	9.89005
624	1	1.3	37.55495	22.67505	9.46045
625	1	1.3	39.28715	24.63485	7.697
626	2	-0.65	38.81085	23.53375	8.80365
627	2	-0.65	43.53445	22.87285	8.6062
628	1	1.3	44.76145	23.9175	9.01615
629	2	-0.65	6.3685	26.5888	9.5875
630	1	1.3	5.13575	26.9051	8.5353
631	2	-0.65	11.91435	25.41675	7.9969
632	2	-0.65	11.21265	27.3834	9.69425
633	1	1.3	12.4319	26.35365	9.28885
634	2	-0.65	13.6079	27.2834	8.6198
635	1	1.3	33.8586	26.84775	8.61055
636	2	-0.65	32.7387	27.23405	9.7803
637	2	-0.65	35.07425	25.9715	9.1525
638	2	-0.65	40.6019	25.236	8.5384
639	1	1.3	41.2654	26.59925	9.2545
640	2	-0.65	42.3023	27.4382	8.28255
641	2	-0.65	7.57055	29.702	8.38385
642	1	1.3	14.2115	28.3179	7.50205
643	2	-0.65	14.70315	29.5755	8.40375
644	2	-0.65	17.2946	29.56325	9.2789
645	2	-0.65	34.41325	28.3049	8.1111
646	2	-0.65	38.7233	29.9175	9.0878
647	2	-0.65	39.99465	27.60485	9.4856
648	1	1.3	42.7976	28.87875	7.6741
649	2	-0.65	43.4283	29.8087	8.86385
650	1	1.3	8.859	30.33865	9.1648
651	2	-0.65	10.12415	30.72815	8.19245
652	2	-0.65	13.2678	32.36275	9.82235
653	1	1.3	15.9575	30.40915	8.8445
654	2	-0.65	16.5367	31.2958	7.602
655	2	-0.65	19.0284	32.36595	8.0176
656	2	-0.65	22.8426	31.89805	9.8618
657	1	1.3	32.0973	31.6445	7.52085
658	1	1.3	30.37865	30.12745	9.6724
659	2	-0.65	31.5419	30.69525	8.68285
660	2	-0.65	33.4447	32.4588	8.1362
661	2	-0.65	36.31295	30.388	8.1974
662	1	1.3	37.5807	31.1502	8.8742
663	2	-0.65	38.1737	32.2066	7.78715
664	2	-0.65	11.83855	32.6313	7.58705
665	2	-0.65	11.5115	34.5385	9.48975
666	1	1.3	12.5412	33.46045	8.80755
667	2	-0.65	13.82135	34.2632	8.0723
668	1	1.3	19.70235	33.49095	9.0148
669	2	-0.65	18.6151	34.56445	9.4602
670	2	-0.65	20.89225	34.2089	8.2171
671	1	1.3	26.85895	33.82665	8.40715
672	2	-0.65	25.71925	34.13155	9.5828
673	2	-0.65	28.05785	33.0746	9.23315
674	1	1.3	34.0146	33.74555	9.0578
675	2	-0.65	32.7424	34.74535	9.42375
676	2	-0.65	35.2087	34.49405	8.18905
677	2	-0.65	40.11495	33.82295	8.5672
678	1	1.3	41.25995	34.7388	9.2651
679	2	-0.65	42.3725	33.6905	9.7763
680	2	-0.65	15.06285	36.6603	8.4683
681	2	-0.65	17.45975	36.91185	9.3834
682	1	1.3	21.5507	35.5644	7.5145
683	2	-0.65	22.13105	36.5542	8.72215
684	1	1.3	23.5277	37.1514	9.43915
685	2	-0.65	27.39485	35.15235	7.6741
686	2	-0.65	29.2668	37.14415	8.09825
687	2	-0.65	31.78785	37.1793	9.1623
688	1	1.3	35.80365	35.91915	7.63685
689	2	-0.65	36.39135	36.59425	8.96365
690	1	1.3	37.69915	37.36295	9.7176
691	2	-0.65	10.18635	38.4122	8.71275
692	1	1.3	16.2076	37.7892	8.7537
693	2	-0.65	15.6758	38.8289	9.88545
694	2	-0.65	19.06385	39.5847	7.6761
695	2	-0.65	24.5967	37.5971	8.3503
696	2	-0.65	26.2333	39.6733	7.79585
697	1	1.3	30.48995	38.0613	8.67765
698	2	-0.65	38.8085	37.65245	8.5462
699	2	-0.65	13.88145	40.70205	9.29
700	1	1.3	19.7967	40.7798	8.5501
701	2	-0.65	18.6712	41.2782	9.66975
702	2	-0.65	21.20395	40.2439	9.2212
703	2	-0.65	20.15385	42.0791	7.6099
704	1	1.3	26.78405	40.92005	8.72095
705	2	-0.65	25.44255	41.6314	9.4532
706	2	-0.65	27.1823	42.0411	7.5714
707	2	-0.65	28.0065	40.59825	9.78265
708	2	-0.65	32.76305	40.79305	8.11515
709	1	1.3	33.95545	41.4324	9.02465
710	2	-0.65	35.13745	40.3781	9.5837
711	2	-0.65	21.83635	44.126	8.20705
712	1	1.3	23.1531	44.5894	9.03065
713	2	-0.65	24.4112	44.97875	8.0775
714	2	-0.65	29.5814	43.05665	8.10655
715	1	1.3	30.30155	43.96455	9.2126
716	1	1.3	17.8654	6.98175	10.6769
717	2	-0.65	23.65425	6.31655	11.1009
718	1	1.3	24.95115	6.98605	10.2141
719	1	1.3	23.15035	5.65635	12.4995
720	2	-0.65	26.13565	7.4906	11.1682
721	2	-0.65	30.9237	7.09735	11.6501
722	1	1.3	32.0627	7.4588	10.5745
723	1	1.3	30.27995	5.8431	12.48445
724	2	-0.65	13.76975	9.20405	11.7632
725	2	-0.65	19.17065	7.91655	11.01075
726	1	1.3	19.73915	9.26985	11.69845
727	2	-0.65	28.05215	9.15455	12.20605
728	2	-0.65	33.42235	7.929	11.3983
729	2	-0.65	35.2635	9.6634	11.99385
730	2	-0.65	12.9918	11.42585	10.5744
731	1	1.3	14.2693	10.6142	11.12955
732	2	-0.65	15.0954	11.468	12.1964
733	2	-0.65	20.1446	10.37935	10.61215
734	2	-0.65	21.8847	12.2949	11.0949
735	2	-0.65	24.1179	11.54645	12.4703
736	2	-0.65	27.3275	11.27385	10.6911
737	2	-0.65	29.67195	10.31795	10.3282
738	1	1.3	28.5588	10.4941	11.4538
739	1	1.3	35.79615	10.27905	10.5878
740	2	-0.65	36.82505	11.53165	10.86805
741	2	-0.65	9.4631	14.81115	10.09305
742	2	-0.65	10.0285	13.68805	12.44765
743	2	-0.65	11.867	13.8288	10.3404
744	1	1.3	10.64885	14.5167	11.14315
745	2	-0.65	16.58455	13.23715	10.81805
746	1	1.3	16.08275	12.83115	12.30875
747	2	-0.65	19.0261	14.38315	10.9708
748	1	1.3	23.06585	12.7228	12.12195
749	2	-0.65	23.792	14.11565	11.55945
750	1	1.3	24.961	14.8158	10.7504
751	2	-0.65	26.2299	13.76295	10.4626
752	2	-0.65	31.16455	12.9587	12.1182
753	1	1.3	31.92885	14.0524	11.23645
754	2	-0.65	33.2877	13.34945	10.62585
755	1	1.3	37.4072	12.53035	12.02955
756	2	-0.65	38.02895	13.8092	11.19435
757	1	1.3	39.2899	14.6937	10.7408
758	1	1.3	7.05065	17.42245	10.97305
759	2	-0.65	11.107	15.95045	11.7601
760	1	1.3	12.425	16.7566	12.30095
761	2	-0.65	15.35575	17.28105	10.03795
762	1	1.3	19.61815	15.3131	12.1826
763	2	-0.65	20.81725	16.19645	11.56075
764	2	-0.65	25.5042	15.9571	11.7322
765	1	1.3	26.7387	16.7752	12.4137
766	2	-0.65	32.60165	15.2935	12.0973
767	2	-0.65	35.09345	16.56945	12.11045
768	2	-0.65	40.0316	15.3979	12.05485
769	2	-0.65	41.5154	17.40745	11.40645
770	2	-0.65	8.23235	18.1725	11.8626
771	1	1.3	9.04695	19.5763	12.1253
772	2	-0.65	12.9329	17.7815	11.1411
773	1	1.3	14.2525	18.40465	10.4321
774	2	-0.65	14.99485	19.42245	11.44455
775	1	1.3	21.30255	17.6165	10.95105
776	2	-0.65	20.0155	18.3061	10.31945
777	2	-0.65	21.94015	18.57275	12.15485
778	2	-0.65	27.5133	17.76115	11.33145
779	1	1.3	28.73915	17.9462	10.2898
780	2	-0.65	30.03185	18.5917	11.1559
781	1	1.3	30.50495	19.6843	12.17255
782	2	-0.65	34.3509	18.6788	10.52765
783	1	1.3	35.50695	17.55685	10.9057
784	2	-0.65	36.678	18.53145	11.45815
785	2	-0.65	38.7552	19.94945	12.37935
786	1	1.3	42.66855	17.87095	10.29475
787	2	-0.65	43.9234	18.573	11.25435
788	2	-0.65	9.754	20.14485	10.7503
789	1	1.3	10.81045	21.2536	10.17725
790	2	-0.65	12.0329	21.60725	11.1967
791	2	-0.65	16.7558	22.2858	10.1402
792	2	-0.65	17.44415	20.4189	11.83655
793	1	1.3	18.01095	21.3115	10.5647
794	2	-0.65	30.94235	21.09435	11.4408
795	1	1.3	32.10505	22.05035	10.7379
796	2	-0.65	33.3386	21.1302	10.26405
797	2	-0.65	38.05755	21.80655	10.67865
798	1	1.3	39.3203	21.12405	11.41735
799	2	-0.65	39.84015	22.3782	12.28395
800	2	-0.65	40.5808	20.7674	10.48655
801	2	-0.65	6.03955	24.5972	11.31395
802	2	-0.65	13.8209	23.4693	11.76855
803	1	1.3	14.36485	24.94915	11.1419
804	1	1.3	12.5932	22.57105	12.354
805	2	-0.65	32.60615	23.26545	11.711