LAMMPS (3 Mar 2020)
Reading data file ...
  orthogonal box = (-50 -50 0) to (50 50 50)
  1 by 1 by 1 MPI processor grid
  reading atoms ...
  12261 atoms
  read_data CPU = 0.0198382 secs
WARNING: VdWaals-parameters for element O indicate inner wall+shielding, but earlier atoms indicate different vdWaals-method. This may cause division-by-zero errors. Keeping vdWaals-setting for earlier atoms. (../reaxc_ffield.cpp:259)
Neighbor list info ...
  update every 1 steps, delay 10 steps, check yes
  max neighbors/atom: 2000, page size: 100000
  master list distance cutoff = 12
  ghost atom cutoff = 12
  binsize = 6, bins = 17 17 9
  3 neighbor lists, perpetual/occasional/extra = 2 1 0
  (1) pair reax/c, perpetual
      attributes: half, newton off, ghost
      pair build: half/bin/newtoff/ghost
      stencil: half/ghost/bin/3d/newtoff
      bin: standard
  (2) compute centro/atom, occasional
      attributes: full, newton on
      pair build: full/bin/atomonly
      stencil: full/bin/3d
      bin: standard
  (3) fix qeq/reax, perpetual, copy from (1)
      attributes: half, newton off, ghost
      pair build: copy
      stencil: none
      bin: none
Setting up Verlet run ...
  Unit style    : real
  Current step  : 0
  Time step     : 0.01
Per MPI rank memory allocation (min/avg/max) = 1017 | 1017 | 1017 Mbytes
Step Lx Ly Lz Press Pxx Pyy Pzz PotEng Temp 
       0          100          100           50    657814.92     649669.6    658508.77     665266.4    1723786.7          300 
     200    136.21987    136.21987    68.109936   -146.46977    538.69413    36.908599    -1015.012   -1195370.6    1256.8529 
     400    135.90882    135.90882     67.95441   -1.3971134    907.19441   -849.52503   -61.860721   -1261444.6    1685.7057 
     600    135.45562    135.45562    67.727812    37050.773    37404.167    37050.436    36697.716   -1322485.3    1697.4734 
     800    135.30201    135.30201    67.651006    53181.939    52654.138     53464.58    53427.098   -1374339.8    1571.9757 
    1000     135.2341     135.2341    67.617052    64401.536    62185.763    65498.497    65520.347   -1418328.9    1449.9533 
    1200    136.49324    136.49324    68.246618   -75055.682   -73721.695   -75279.781   -76165.571     -1447344    1306.5619 
    1400    136.58888    136.58888     68.29444   -79930.703    -78650.66    -79921.88   -81219.569   -1478640.2    1213.1048 
    1600    135.26342    135.26342    67.631711    81671.971    77723.365    83021.872    84270.677   -1518493.4    1149.6628 
    1800    136.57756    136.57756    68.288778   -78410.666   -77349.899   -78493.574   -79388.526   -1535573.9    1058.7022 
    2000     135.8805     135.8805    67.940249   -18900.386   -19117.737   -18885.311   -18698.111   -1573608.8    991.81732 
    2200    135.28981    135.28981    67.644904    132696.87     128087.1    134289.16    135714.36   -1581512.9    932.45661 
    2400    136.50487    136.50487    68.252437   -69586.059   -67951.888     -69217.6   -71588.689   -1598277.9    865.83936 
    2600    138.27959    138.27959    69.139795   -121423.86   -119797.24    -120982.5   -123491.84   -1540645.1    805.26809 
    2800    135.87696    135.87696    67.938481    -3650.914   -3207.0788   -3960.9801   -3784.6831   -1640789.6    786.07378 
    3000    135.73943    135.73943    67.869715    35728.615     35146.08    33947.358    38092.408   -1652501.8       750.76 
    3200    136.18478    136.18478    68.092391   -41023.518   -40382.382   -41082.025   -41606.148   -1661716.6    712.46235 
    3400    138.54275    138.54275    69.271376   -121263.73    -119479.6   -120472.97   -123838.61   -1581269.8    654.46337 
    3600     138.5071     138.5071    69.253548   -118685.72   -117002.87   -117672.94   -121381.34   -1593592.1    631.45984 
    3800    138.69309    138.69309    69.346547   -122814.64   -120769.51   -122155.87   -125518.53   -1594111.3     609.8179 
    4000    138.35571    138.35571    69.177855   -111009.23   -109127.88   -110361.28   -113538.52     -1620184    593.76658 
    4200     135.6679     135.6679    67.833951     90187.99    88778.463    88684.705    93100.801   -1700855.7    589.26379 
    4400    138.73915    138.73915    69.369575   -120630.15   -118615.72   -120318.18   -122956.55   -1618455.8    549.89385 
    4600    139.09643    139.09643    69.548216   -127834.42   -125393.31   -127458.34   -130651.62     -1607234    528.65528 
    4800    136.59286    136.59286    68.296431   -60971.524   -59769.593   -61233.451   -61911.529   -1717559.7    536.32056 
    5000    138.63279    138.63279    69.316395   -113399.14   -111249.33   -113116.79    -115831.3     -1645491    505.94534 
    5200    135.56086    135.56086    67.780431     191605.4    188228.46    189475.96     197111.8   -1718411.2    513.48806 
    5400    138.95842    138.95842    69.479211   -121838.77   -119369.48   -121649.11   -124497.72   -1642064.4    481.26951 
    5600     139.1372     139.1372    69.568601   -124076.06   -121988.16   -123691.46   -126548.57   -1638910.3    472.21996 
    5800    138.84105    138.84105    69.420526   -114507.83   -112296.31   -114351.98   -116875.19   -1659928.9    463.45897 
    6000    135.62051    135.62051    67.810257    214278.93    210623.96    210854.53    221358.31   -1733157.4    474.90771 
    6200    135.60276    135.60276    67.801379    227085.44    223192.57    224967.11    233096.64   -1734385.1    470.26091 
    6400    138.47238    138.47238    69.236188    -98389.44   -95898.809   -98494.806   -100774.71   -1692381.5    446.23766 
    6600    135.75546    135.75546    67.877732    174834.54    170132.75    174725.06     179645.8   -1750056.8    458.69652 
    6800    135.77536    135.77536    67.887681    174101.85    172623.56    172905.44    176776.55   -1753642.6    452.62675 
    7000    135.81151    135.81151    67.905755     165131.8    161649.55    163426.81    170319.04   -1758040.9    448.95348 
    7200    136.82461    136.82461    68.412306   -53549.814    -52347.81   -53270.481   -55031.152   -1768339.8    434.80403 
    7400    138.62233    138.62233    69.311165   -103536.63    -101343.6   -103577.61   -105688.68   -1710118.5    419.41418 
    7600     136.8107     136.8107    68.405349   -48487.781    -47730.12   -48436.075   -49297.147   -1775817.1    433.30729 
    7800     138.8396     138.8396    69.419799   -105436.52   -103223.01      -105580   -107506.56   -1706920.6    412.12706 
    8000    137.09405    137.09405    68.547024   -69985.383   -68464.388   -69770.988   -71720.774   -1775063.8    416.71695 
    8200    136.37579    136.37579    68.187896    4380.8279    4523.3682    3579.8903    5039.2252   -1788516.2    418.38199 
    8400    136.33287    136.33287    68.166435     15085.82    14495.527    14417.659    16344.275   -1790905.7    412.62641 
    8600    138.63646    138.63646    69.318228   -92533.298   -90659.112   -92243.972    -94696.81   -1729973.2    395.97715 
    8800    139.48406    139.48406    69.742032      -121398   -119164.37   -120667.96   -124361.67     -1693596    386.08441 
    9000    136.89181    136.89181    68.445905   -46048.251   -45037.394   -46257.312   -46850.048     -1794369    393.90575 
    9200    135.98118    135.98118     67.99059    169503.57    164189.31    169138.54    175182.86   -1787929.9    395.12528 
    9400    138.72808    138.72808    69.364038   -95338.083   -93092.296   -94980.046   -97941.906   -1737984.5    376.89526 
    9600    136.05957    136.05957    68.029785    152262.92    148350.71    151666.62    156771.44   -1794336.4    391.91271 
    9800    137.04141    137.04141    68.520707   -56432.106   -55101.832   -56802.581   -57391.904   -1801290.6    385.88784 
   10000    138.89098    138.89098    69.445491   -100496.72   -98201.381   -100156.03   -103132.75   -1740092.8    375.87391 
Loop time of 25441.3 on 1 procs for 10000 steps with 12261 atoms

Performance: 0.000 ns/day, 70670.307 hours/ns, 0.393 timesteps/s
98.7% CPU use with 1 MPI tasks x no OpenMP threads

MPI task timing breakdown:
Section |  min time  |  avg time  |  max time  |%varavg| %total
---------------------------------------------------------------
Pair    | 16872      | 16872      | 16872      |   0.0 | 66.32
Neigh   | 92.659     | 92.659     | 92.659     |   0.0 |  0.36
Comm    | 0.38156    | 0.38156    | 0.38156    |   0.0 |  0.00
Output  | 0.0077976  | 0.0077976  | 0.0077976  |   0.0 |  0.00
Modify  | 8475.9     | 8475.9     | 8475.9     |   0.0 | 33.32
Other   |            | 0.3342     |            |       |  0.00

Nlocal:    12261 ave 12261 max 12261 min
Histogram: 1 0 0 0 0 0 0 0 0 0
Nghost:    3139 ave 3139 max 3139 min
Histogram: 1 0 0 0 0 0 0 0 0 0
Neighs:    4.31873e+06 ave 4.31873e+06 max 4.31873e+06 min
Histogram: 1 0 0 0 0 0 0 0 0 0
FullNghs:  0 ave 0 max 0 min
Histogram: 1 0 0 0 0 0 0 0 0 0

Total # of neighbors = 4318734
Ave neighs/atom = 352.233
Neighbor list builds = 867
Dangerous builds = 641
Initial Length, L0: 69.4454911131573
Setting up Verlet run ...
  Unit style    : real
  Current step  : 0
  Time step     : 0.01
Per MPI rank memory allocation (min/avg/max) = 982.8 | 982.8 | 982.8 Mbytes
Step v_strain Temp v_p2 v_p3 v_p4 KinEng PotEng Press 
       0 6.1389967e-16    375.87391    9.8201381    10.015603    10.313275    13736.211   -1740092.8   -100496.72 
     200         0.02    793.37419    4.9230298    5.0086363    8.4687801    28993.647   -1784893.8   -61334.821 
     400         0.04    756.76634      7.44485    7.5619703    9.6306037    27655.823     -1770922   -82124.747 
     600         0.06    750.91342    9.5645233    9.6091523    11.696456    27441.929   -1746413.4   -102900.44 
     800         0.08    786.92529     9.653594    9.7088402     11.96172    28757.973   -1737047.7   -104413.85 
    1000          0.1    816.56385    -5.179775   -5.2705571    2.8692739    29841.106   -1764583.7    25270.194 
    1200         0.12    835.19366    2.3293993    2.3044296    7.5983296    30521.928     -1760345   -40773.862 
    1400         0.14    865.32077   -9.1745651   -9.2279852    1.6558058    31622.915   -1750379.4    55822.482 
    1600         0.16    872.31565   -3.9977495   -4.0229295    4.3139461    31878.541   -1749942.7    12355.776 
    1800         0.18    874.50112    8.0843353    8.2026676    11.477124    31958.408   -1724504.3    -92547.09 
    2000          0.2    905.50883   -5.5654394   -5.6955526    3.7503222    33091.577   -1741160.4    25035.566 
    2200         0.22    919.91551   -8.2847056   -8.4782556    2.3930553    33618.065   -1736193.5    47899.686 
    2400         0.24    924.81213   0.94804541   0.97559133    6.7663381    33797.011   -1739870.3   -28966.583 
    2600         0.26    934.18571   0.50865915   0.52910543    6.4764597    34139.566   -1739787.1   -25047.414 
    2800         0.28    941.05355    1.7106496    1.7538892    7.1025492    34390.549   -1739781.2   -35223.626 
    3000          0.3    950.88062    3.0994916    3.2094556    7.9237062    34749.677   -1740063.1   -47442.178 
    3200         0.32    955.35782    4.2740916    4.3391861    8.4950021    34913.295   -1740340.6   -57027.599 
    3400         0.34    954.91324    4.0456399    4.1904032    8.2759109    34897.048     -1743942   -55039.847 
    3600         0.36     954.2404    3.7653463    3.8462813    8.0856141    34872.459   -1747825.5   -52324.139 
    3800         0.38    950.72939    3.5398281    3.6020587    7.7811181     34744.15   -1751896.8    -49743.35 
    4000          0.4    948.40016    3.4545838    3.5131981    7.6508487    34659.029   -1756300.6   -48728.769 
    4200         0.42    942.57853    3.3797168    3.4108221     7.533228    34446.279   -1760811.1    -47745.89 
    4400         0.44    935.10368    3.0213197     3.064009    7.2374049    34173.113   -1765711.4   -44409.112 
    4600         0.46    930.77326     2.685264    2.7358481    6.9113001    34014.859     -1770789   -41108.041 
    4800         0.48     925.0017    2.4239321    2.4971191     6.679759    33803.938   -1775896.5   -38669.368 
    5000          0.5    919.90337    2.4929021     2.557352    6.6775113    33617.621   -1780818.8   -39092.551 
    5200         0.52    912.18114    2.1639336    2.2348848    6.3245392    33335.415     -1786227   -35744.525 
    5400         0.54    907.73752    1.7933407     1.866819    6.1194265    33173.024   -1791669.9    -32598.62 
    5600         0.56    901.42649    1.8449494    1.9069481    6.0264588    32942.389   -1796799.5   -32594.521 
    5800         0.58    892.30547    1.5633417    1.6233802    5.8516648    32609.063   -1802037.6   -30127.956 
    6000          0.6    883.55189    1.5821711       1.6261    5.8198418    32289.166   -1806966.2    -30093.71 
    6200         0.62    872.73673    1.0534722    1.0799604    5.4263477    31893.929   -1811874.3   -25199.268 
    6400         0.64    861.47637   0.43091683   0.44281904     4.986412    31482.422   -1816475.9   -19533.826 
    6600         0.66    854.45937  -0.22834987  -0.23420512    4.5846362    31225.988   -1820862.7   -13740.271 
    6800         0.68    845.88658    1.1573642    1.1929873    5.4533419    30912.698   -1824763.2   -26012.311 
    7000          0.7    834.51656  0.090348309  0.093593645    4.7434976    30497.183   -1828806.4   -16424.799 
    7200         0.72    830.83295 -0.024029738 -0.023534949    4.7015124    30362.567   -1832650.9   -15513.159 
    7400         0.74    825.90782 -1.1549623e-05 0.00080464899    4.7024972    30182.579   -1836400.8   -15677.634 
    7600         0.76    820.63698 -0.0080282514 -0.0075196407    4.6770432    29989.958     -1840020   -15538.318 
    7800         0.78    809.57947 -0.00027405079 -0.0049749279    4.6851108    29585.864     -1843274   -15599.539 
    8000          0.8    806.49414 0.0074604802  0.006169951     4.670158    29473.112   -1846547.1   -15612.628 
    8200         0.82    791.20298 0.0028886001 0.0024900185    4.6338817      28914.3   -1849198.2   -15464.201 
    8400         0.84    784.92068 -0.0046819576 -0.00081933547    4.7065253    28684.715   -1851885.8    -15670.08 
    8600         0.86    782.31273 -0.0034987062 -0.0035479899    4.7168881    28589.409   -1854578.5   -15699.471 
    8800         0.88    777.27789 -0.00070157583 -0.0011517073    4.6710244    28405.411   -1857116.8   -15563.904 
    9000          0.9    763.98901 0.0065962859 0.0077781674    4.6500828    27919.773   -1859110.8   -15548.191 
    9200         0.92    755.16186  0.015169577  0.019389744     4.651837    27597.187   -1860936.8   -15621.321 
    9400         0.94    754.73159 0.00051678103 -0.0012798728    4.7092757    27581.463   -1862903.6   -15695.042 
    9600         0.96    749.28246 0.0017737761 0.0013882943    4.6129187    27382.326   -1864762.8   -15386.936 
    9800         0.98    746.39018 -0.0051222437 -0.0058671216    4.6553207    27276.628   -1866650.3   -15481.104 
   10000            1    742.27729 -0.0086201487 -0.012156084    4.6755436    27126.324   -1868341.2   -15515.891 
Loop time of 18105 on 1 procs for 10000 steps with 12261 atoms

Performance: 0.000 ns/day, 50291.599 hours/ns, 0.552 timesteps/s
98.9% CPU use with 1 MPI tasks x no OpenMP threads

MPI task timing breakdown:
Section |  min time  |  avg time  |  max time  |%varavg| %total
---------------------------------------------------------------
Pair    | 12503      | 12503      | 12503      |   0.0 | 69.06
Neigh   | 24.135     | 24.135     | 24.135     |   0.0 |  0.13
Comm    | 0.17903    | 0.17903    | 0.17903    |   0.0 |  0.00
Output  | 24.291     | 24.291     | 24.291     |   0.0 |  0.13
Modify  | 5552.8     | 5552.8     | 5552.8     |   0.0 | 30.67
Other   |            | 0.4516     |            |       |  0.00

Nlocal:    12261 ave 12261 max 12261 min
Histogram: 1 0 0 0 0 0 0 0 0 0
Nghost:    1252 ave 1252 max 1252 min
Histogram: 1 0 0 0 0 0 0 0 0 0
Neighs:    3.13932e+06 ave 3.13932e+06 max 3.13932e+06 min
Histogram: 1 0 0 0 0 0 0 0 0 0
FullNghs:  6.27163e+06 ave 6.27163e+06 max 6.27163e+06 min
Histogram: 1 0 0 0 0 0 0 0 0 0

Total # of neighbors = 6271626
Ave neighs/atom = 511.51
Neighbor list builds = 259
Dangerous builds = 93
Good Morning

Please see the log.cite file for references relevant to this simulation

Total wall time: 12:06:03