Created by neil, amorphous carbon coating-silicon nanowire

14054 atoms
2 atom types
       
-0.500000E+02 0.50000E+02 xlo xhi
-0.500000E+02 0.50000E+02 ylo yhi
0.0000000E+02 0.50000E+02 zlo zhi

Masses

1 12.0107
2 28.0855

Atoms

1 1 0 21.9813 11.7423 0.09419 
2 1 0 38.901 11.9433 0.18731 
3 1 0 14.2457 12.437 0.0613735 
4 1 0 18.9742 13.3299 0.131818 
5 1 0 35.8625 12.8851 0.107682 
6 1 0 14.6895 18.0374 0.0337126 
7 1 0 31.9811 17.2365 0.025521 
8 1 0 17.9616 18.5538 0.118207 
9 1 0 28.8882 19.1424 0.0707655 
10 1 0 32.1355 18.6625 0.0881825 
11 1 0 40.7288 18.4307 0.0463101 
12 1 0 35.6558 21.6966 0.0332955 
13 1 0 14.8685 22.5651 0.092247 
14 1 0 36.201 22.914 0.0127262 
15 1 0 13.9095 24.8743 0.0917735 
16 1 0 14.9943 25.4741 0.00452129 
17 1 0 13.0451 26.2888 0.108695 
18 1 0 32.5805 26.5139 0.138662 
19 1 0 14.4157 28.289 0.0235438 
20 1 0 16.4609 28.0679 0.064992 
21 1 0 17.716 28.708 0.0637155 
22 1 0 34.9346 28.5325 0.100538 
23 1 0 36.5545 28.7477 0.013585 
24 1 0 17.4111 30.0279 0.110618 
25 1 0 31.2037 31.243 0.06976 
26 1 0 34.6045 31.2301 0.0973595 
27 1 0 39.6507 31.1181 0.0896625 
28 1 0 13.6587 31.9778 0.0694815 
29 1 0 22.4421 32.8182 0.051436 
30 1 0 25.3823 33.6732 0.0304986 
31 1 0 32.098 35.0439 0.0566815 
32 1 0 14.176 35.7376 0.0147235 
33 1 0 20.5679 35.6264 0.016683 
34 1 0 33.5921 35.5267 0.0191218 
35 1 0 39.2773 35.6381 0.0382378 
36 1 0 19.7936 37.1412 0.0551545 
37 1 0 24.5721 37.6881 0.0165762 
38 1 0 26.3579 37.5679 0.071226 
39 1 0 31.0311 37.4339 0.0177255 
40 1 0 22.5796 38.4878 0.098009 
41 1 0 34.4477 38.8302 0.126879 
42 1 0 30.5465 39.8035 0.0686205 
43 1 0 16.0905 11.4677 6.6378 
44 1 0 21.9997 11.9842 6.16175 
45 1 0 23.3292 11.8058 6.4127 
46 1 0 26.27 11.3089 6.72695 
47 1 0 32.1828 11.5253 7.16335 
48 1 0 37.6622 11.7064 7.19985 
49 1 0 39.9068 11.3866 6.7565 
50 1 0 41.0647 11.4043 6.3443 
51 1 0 13.3943 12.603 6.6046 
52 1 0 12.2845 12.8899 7.3018 
53 1 0 15.0679 12.9792 6.81985 
54 1 0 18.1229 13.2571 6.4269 
55 1 0 19.948 12.3892 6.5868 
56 1 0 22.3116 13.0029 7.03395 
57 1 0 23.6317 13.3352 6.8365 
58 1 0 24.6029 12.539 7.24315 
59 1 0 26.8925 12.4664 7.04995 
60 1 0 28.0765 13.285 6.8711 
61 1 0 29.5415 12.8405 6.716 
62 1 0 31.6445 13.3506 6.1578 
63 1 0 31.0276 12.5008 7.2563 
64 1 0 32.4737 12.9063 7.2643 
65 1 0 33.8493 12.7816 6.68785 
66 1 0 36.0591 12.7898 6.5248 
67 1 0 37.5547 12.8219 6.42815 
68 1 0 39.5898 12.8503 6.85235 
69 1 0 11.712 14.002 7.05975 
70 1 0 12.7988 13.7176 6.2886 
71 1 0 16.4485 13.5939 6.6975 
72 1 0 17.3626 14.3847 7.10435 
73 1 0 20.1565 13.7121 7.19265 
74 1 0 23.2829 14.3979 7.282 
75 1 0 25.9009 14.6138 6.91505 
76 1 0 27.9538 14.5204 6.7512 
77 1 0 31.5083 14.4504 7.2401 
78 1 0 32.7043 14.0114 6.76175 
79 1 0 40.8192 14.114 6.2528 
80 1 0 11.3053 15.4094 6.82015 
81 1 0 13.2427 15.7369 6.457 
82 1 0 14.1522 14.84 6.24045 
83 1 0 15.3704 15.7427 6.23005 
84 1 0 17.6474 15.1989 6.2435 
85 1 0 18.7094 14.7868 6.9412 
86 1 0 22.2113 15.2673 6.81725 
87 1 0 24.495 15.4453 6.81235 
88 1 0 26.8215 15.6079 6.684 
89 1 0 28.0925 15.7254 6.9932 
90 1 0 29.9461 15.419 6.10705 
91 1 0 33.6664 14.7001 6.7104 
92 1 0 35.6948 15.4864 6.65195 
93 1 0 36.803 14.7969 6.4174 
94 1 0 38.6017 14.9085 6.53545 
95 1 0 11.738 16.6777 6.6824 
96 1 0 16.9617 16.5587 6.697 
97 1 0 18.7136 16.3097 6.7815 
98 1 0 20.3367 16.0877 6.27215 
99 1 0 22.5902 16.8624 7.25725 
100 1 0 23.3876 16.0061 7.15015 
101 1 0 24.4681 16.79 6.2032 
102 1 0 25.7339 16.109 6.2436 
103 1 0 29.2601 16.5784 7.20145 
104 1 0 30.7947 16.8091 6.41095 
105 1 0 31.6635 16.1089 7.18175 
106 1 0 32.7874 16.9236 6.44115 
107 1 0 33.422 15.9206 7.0903 
108 1 0 34.4009 16.0556 6.28775 
109 1 0 36.1831 16.8076 6.7639 
110 1 0 39.9189 16.0744 6.45215 
111 1 0 13.6584 17.6075 6.99125 
112 1 0 15.0594 17.9038 6.3604 
113 1 0 16.374 17.9235 7.19155 
114 1 0 18.1583 17.3785 6.46125 
115 1 0 20.0868 17.0975 7.0571 
116 1 0 19.8161 18.0907 6.32305 
117 1 0 21.3586 17.5183 6.52975 
118 1 0 22.5394 18.2235 7.0767 
119 1 0 28.1221 17.3915 7.14935 
120 1 0 29.8043 17.9941 7.2987 
121 1 0 34.4283 17.3134 6.6508 
122 1 0 37.3389 17.2689 6.3229 
123 1 0 38.2964 18.1803 6.3872 
124 1 0 12.0216 19.1467 6.6704 
125 1 0 13.2161 18.5633 6.22225 
126 1 0 15.6881 19.1476 6.91495 
127 1 0 17.3736 18.5704 6.5306 
128 1 0 18.5228 18.7971 6.9757 
129 1 0 28.55 18.8595 7.21205 
130 1 0 30.6944 19.0672 7.0901 
131 1 0 31.7708 18.4709 6.726 
132 1 0 33.5831 18.8185 6.70035 
133 1 0 37.0844 18.9048 6.51005 
134 1 0 40.1434 18.5444 7.2577 
135 1 0 39.458 18.8398 6.21615 
136 1 0 11.3735 20.3155 7.04585 
137 1 0 13.3569 19.8456 7.14335 
138 1 0 14.56 19.6497 6.35965 
139 1 0 16.9545 20.1642 6.87955 
140 1 0 32.3541 19.6654 6.6143 
141 1 0 34.7381 19.5268 6.4415 
142 1 0 35.8913 20.2258 6.84005 
143 1 0 38.6831 20.4191 6.8704 
144 1 0 40.3818 20.0371 6.1894 
145 1 0 12.6876 21.0235 7.28465 
146 1 0 13.8019 20.9962 6.72735 
147 1 0 15.0567 21.2719 6.73075 
148 1 0 18.2729 21.2579 6.59615 
149 1 0 31.7917 21.1512 7.1388 
150 1 0 33.3768 20.7382 6.57095 
151 1 0 35.7758 21.6182 6.89345 
152 1 0 37.1788 20.9196 6.14305 
153 1 0 40.2824 21.7667 6.5774 
154 1 0 12.2887 22.585 7.2302 
155 1 0 14.1616 22.2412 6.9862 
156 1 0 16.2446 22.4824 7.0423 
157 1 0 17.7218 22.2684 6.9911 
158 1 0 32.7093 21.9993 6.4237 
159 1 0 35.0035 22.3633 6.2814 
160 1 0 38.7617 22.0355 6.31905 
161 1 0 40.0373 22.8509 7.15555 
162 1 0 11.2548 23.2854 6.8156 
163 1 0 12.3499 24.3113 6.18655 
164 1 0 13.8128 23.9802 7.22585 
165 1 0 15.1056 23.621 6.60825 
166 1 0 17.0723 23.6229 6.59065 
167 1 0 33.6355 23.2845 7.18755 
168 1 0 33.5956 24.149 6.19935 
169 1 0 35.365 23.6619 6.20345 
170 1 0 34.6976 24.3277 7.1583 
171 1 0 36.8361 23.4762 6.58065 
172 1 0 38.3882 23.9678 6.29385 
173 1 0 11.2465 24.6417 6.87235 
174 1 0 13.7703 25.1146 7.24355 
175 1 0 16.0317 24.6992 7.0575 
176 1 0 17.4513 25.4597 6.6653 
177 1 0 32.3664 24.466 6.304 
178 1 0 33.5387 25.4128 7.03045 
179 1 0 37.3676 25.2503 7.18395 
180 1 0 40.3747 24.4059 7.1027 
181 1 0 12.0069 26.2542 6.61285 
182 1 0 13.8239 25.8633 6.1694 
183 1 0 14.963 26.7254 6.77245 
184 1 0 16.0015 25.8172 6.4018 
185 1 0 32.2583 25.8121 6.2801 
186 1 0 33.2347 26.5054 6.31215 
187 1 0 34.467 26.0839 6.5005 
188 1 0 36.4622 26.7409 6.19795 
189 1 0 35.5754 25.633 6.89105 
190 1 0 38.4631 25.7501 6.38135 
191 1 0 39.8955 25.6863 7.1574 
192 1 0 40.9894 26.2076 6.2769 
193 1 0 12.7855 27.4974 6.96085 
194 1 0 13.9331 27.9217 6.50905 
195 1 0 16.2146 27.192 6.5861 
196 1 0 17.5485 27.2772 7.1144 
197 1 0 31.3953 27.9371 6.4083 
198 1 0 32.9659 27.7891 7.18925 
199 1 0 34.209 27.4895 6.76875 
200 1 0 38.2457 27.9156 7.01235 
201 1 0 39.127 27.0903 6.9266 
202 1 0 40.5144 27.5121 6.5898 
203 1 0 15.215 28.139 7.25225 
204 1 0 16.3706 28.4995 6.54045 
205 1 0 18.7175 28.5151 6.4135 
206 1 0 32.2551 28.9173 6.57435 
207 1 0 34.9138 28.5529 6.28085 
208 1 0 36.0136 28.0708 6.2213 
209 1 0 36.5497 29.2152 7.01945 
210 1 0 37.503 29.0579 6.3708 
211 1 0 38.6328 29.2149 7.07705 
212 1 0 39.5852 28.5201 6.343 
213 1 0 12.4329 29.4989 6.44085 
214 1 0 13.7265 29.3761 6.67715 
215 1 0 14.8867 30.0671 6.7429 
216 1 0 16.6411 30.1639 6.7976 
217 1 0 18.1157 30.0792 6.56495 
218 1 0 19.7389 29.7938 6.481 
219 1 0 31.0293 29.4749 6.33725 
220 1 0 32.6403 30.1939 6.2594 
221 1 0 34.3307 29.5871 6.54755 
222 1 0 35.7057 30.1462 6.5607 
223 1 0 37.3561 30.4552 7.01755 
224 1 0 39.661 29.8296 6.30355 
225 1 0 41.1554 30.3863 6.58735 
226 1 0 12.6061 31.0163 6.3558 
227 1 0 13.7256 30.6998 6.91465 
228 1 0 15.7451 31.1579 6.31545 
229 1 0 17.1315 31.4876 6.21395 
230 1 0 18.4901 31.6144 6.4065 
231 1 0 20.206 31.2577 6.5488 
232 1 0 29.113 31.5064 7.05295 
233 1 0 30.3559 31.326 6.7814 
234 1 0 31.5414 30.7918 6.6269 
235 1 0 32.8193 31.4083 7.0001 
236 1 0 34.6309 30.9732 6.6899 
237 1 0 38.7301 31.1407 6.60485 
238 1 0 11.9584 32.0433 6.6915 
239 1 0 14.4608 32.7635 6.50135 
240 1 0 22.3544 32.0459 6.72795 
241 1 0 24.5056 32.7813 6.63985 
242 1 0 25.7269 32.3696 6.85465 
243 1 0 27.6439 32.8508 6.4479 
244 1 0 30.7359 32.3925 6.29785 
245 1 0 31.8586 32.0602 6.2652 
246 1 0 33.6586 32.2383 6.15865 
247 1 0 34.9829 32.2785 7.05035 
248 1 0 36.5438 31.8977 6.95805 
249 1 0 37.7704 32.1404 6.39545 
250 1 0 40.1008 31.9499 6.2524 
251 1 0 13.0347 32.9897 7.15485 
252 1 0 15.8893 33.4938 6.3046 
253 1 0 17.3083 33.4219 7.1358 
254 1 0 19.4063 32.9492 6.52715 
255 1 0 20.1365 33.9716 7.2743 
256 1 0 21.2663 32.9371 6.7048 
257 1 0 23.3172 33.734 7.06965 
258 1 0 28.9202 33.0637 6.3771 
259 1 0 30.2743 33.5102 6.1674 
260 1 0 31.4173 33.5174 6.8163 
261 1 0 32.6228 33.0455 6.7582 
262 1 0 34.0465 33.8158 6.73865 
263 1 0 36.5622 33.2514 6.67915 
264 1 0 37.7823 33.6518 7.19365 
265 1 0 38.5047 33.3104 6.1273 
266 1 0 41.1488 33.1179 6.7048 
267 1 0 12.0391 34.8348 6.42285 
268 1 0 14.0599 34.1788 6.60425 
269 1 0 15.6756 34.8746 6.53465 
270 1 0 18.4494 34.6604 6.75095 
271 1 0 21.2768 34.2326 6.5008 
272 1 0 22.5843 35.0744 6.3539 
273 1 0 23.9449 34.9557 7.182 
274 1 0 25.3125 34.702 7.1644 
275 1 0 27.4212 34.641 6.73375 
276 1 0 28.8252 34.5671 6.34775 
277 1 0 30.1428 34.8071 6.5539 
278 1 0 31.5648 34.7948 6.6716 
279 1 0 33.0159 34.7926 6.1958 
280 1 0 35.0324 34.52 7.1193 
281 1 0 36.5225 34.4262 7.2168 
282 1 0 37.2861 35.3058 6.6946 
283 1 0 38.9085 35.3382 6.29245 
284 1 0 39.0104 34.4869 7.24185 
285 1 0 13.9831 36.458 7.1927 
286 1 0 14.7103 35.5434 7.0258 
287 1 0 15.5247 36.1508 6.25345 
288 1 0 17.9858 36.3232 6.82445 
289 1 0 20.0392 35.7885 6.2176 
290 1 0 21.0027 36.0301 7.24035 
291 1 0 23.889 36.3631 6.7582 
292 1 0 26.1793 35.7557 6.65225 
293 1 0 28.7881 35.7161 6.9431 
294 1 0 30.9792 35.8593 6.37105 
295 1 0 32.1915 35.7757 7.25325 
296 1 0 34.59 35.534 6.7772 
297 1 0 35.9229 35.8283 7.0051 
298 1 0 38.1714 36.439 7.12595 
299 1 0 40.1336 35.5667 7.30825 
300 1 0 12.8789 36.883 6.25515 
301 1 0 15.7555 37.2402 7.1486 
302 1 0 19.3786 37.0681 6.21655 
303 1 0 21.4765 37.2456 6.64615 
304 1 0 22.8835 37.5718 6.44845 
305 1 0 25.133 36.9661 6.43865 
306 1 0 27.1234 37.2851 6.9162 
307 1 0 28.3105 36.6472 6.25075 
308 1 0 29.2991 37.6806 7.16535 
309 1 0 30.6836 37.2256 6.31005 
310 1 0 32.4346 37.1017 6.4726 
311 1 0 35.3799 37.4225 6.87985 
312 1 0 36.7263 37.1034 6.8883 
313 1 0 39.3097 37.1006 6.3258 
314 1 0 40.7705 37.3207 6.2857 
315 1 0 11.9028 38.1733 6.8169 
316 1 0 13.8474 38.7242 6.42425 
317 1 0 15.3331 38.2577 6.7967 
318 1 0 17.1309 37.9371 6.80475 
319 1 0 18.9672 38.9827 7.14015 
320 1 0 20.2454 37.9273 6.61795 
321 1 0 21.7624 38.5653 6.49015 
322 1 0 22.9069 38.979 7.2938 
323 1 0 24.2078 37.8129 6.83895 
324 1 0 25.7929 37.8135 7.1099 
325 1 0 25.9456 38.9725 7.277 
326 1 0 27.0298 38.9468 6.47835 
327 1 0 28.3536 38.3738 6.4392 
328 1 0 30.1868 38.4995 7.1797 
329 1 0 31.6628 38.5376 6.72565 
330 1 0 33.1775 38.0689 6.47355 
331 1 0 34.2621 37.8708 6.9366 
332 1 0 35.7155 38.7843 6.4865 
333 1 0 38.124 37.8385 7.12815 
334 1 0 37.8973 38.9309 6.6933 
335 1 0 39.8718 38.3945 6.2161 
336 1 0 12.7193 39.4641 7.20975 
337 1 0 15.7456 39.8009 6.76485 
338 1 0 17.6558 39.1281 6.9273 
339 1 0 20.4231 39.1031 6.97845 
340 1 0 25.2743 40.0783 6.93795 
341 1 0 28.3796 39.57 7.0936 
342 1 0 30.1034 39.4167 6.2049 
343 1 0 30.5012 40.0935 7.3089 
344 1 0 32.2957 39.8261 6.4133 
345 1 0 34.4819 39.2541 6.4978 
346 1 0 36.9949 39.6064 6.3091 
347 1 0 38.9827 39.4877 6.6085 
348 1 0 40.3783 39.1421 7.16445 
349 1 0 11.6451 40.5845 6.84195 
350 1 0 13.8626 40.3683 6.8053 
351 1 0 15.4244 40.8605 6.2543 
352 1 0 17.2949 40.3606 6.3578 
353 1 0 18.8466 41.0003 6.6742 
354 1 0 19.9296 40.3609 6.6763 
355 1 0 21.1399 41.0373 7.0515 
356 1 0 22.5084 40.4827 6.68975 
357 1 0 24.2565 40.9774 6.79075 
358 1 0 26.7194 40.3138 6.6533 
359 1 0 28.0742 41.0602 6.9737 
360 1 0 29.4023 40.7423 7.21235 
361 1 0 31.1509 41.1797 6.5975 
362 1 0 33.1309 40.6624 7.001 
363 1 0 36.3894 40.8302 6.69465 
364 1 0 37.87 40.5918 7.26115 
365 1 0 39.6467 40.4635 6.34345 
366 1 0 12.5043 11.3815 7.5316 
367 1 0 13.8609 11.2952 7.56785 
368 1 0 15.3884 11.8056 7.4704 
369 1 0 17.3014 11.2819 7.68905 
370 1 0 19.1742 11.8708 7.55755 
371 1 0 22.5085 11.5784 7.54655 
372 1 0 23.6649 11.5112 7.76795 
373 1 0 25.0493 11.1969 8.06805 
374 1 0 28.789 12.0934 7.8276 
375 1 0 30.0404 12.0454 8.2776 
376 1 0 33.2486 11.6692 7.98975 
377 1 0 34.734 11.3438 8.31455 
378 1 0 35.1831 12.116 7.44045 
379 1 0 36.2615 11.6224 7.6899 
380 1 0 38.9683 11.613 7.43265 
381 1 0 13.5976 13.1175 7.8127 
382 1 0 14.785 12.2651 8.33835 
383 1 0 16.3441 12.4349 8.4725 
384 1 0 17.0603 12.7856 7.4154 
385 1 0 18.0045 12.4256 8.07625 
386 1 0 18.7622 13.3243 7.5043 
387 1 0 20.5862 12.3808 7.8127 
388 1 0 21.9271 12.8703 8.2774 
389 1 0 25.734 12.4092 8.0401 
390 1 0 27.7127 12.7885 8.05 
391 1 0 34.1092 12.6374 8.315 
392 1 0 38.3788 12.6781 7.6536 
393 1 0 39.9456 13.0083 8.4586 
394 1 0 40.782 12.287 7.5922 
395 1 0 14.6271 14.0249 7.5978 
396 1 0 15.843 13.5019 7.88015 
397 1 0 17.3811 14.2669 8.29815 
398 1 0 20.2871 14.4479 8.20425 
399 1 0 21.5012 13.9204 7.3294 
400 1 0 22.3384 14.4231 8.2682 
401 1 0 25.4809 14.2547 8.42185 
402 1 0 24.9491 13.6464 7.4926 
403 1 0 26.4954 13.5663 7.56595 
404 1 0 29.9441 13.698 8.20145 
405 1 0 29.5337 14.5148 7.37205 
406 1 0 33.4049 13.7756 7.9817 
407 1 0 34.7682 13.8367 7.41115 
408 1 0 35.6661 13.6577 8.12145 
409 1 0 36.5882 13.7477 7.35145 
410 1 0 38.3387 13.8771 7.6638 
411 1 0 40.7284 13.6806 7.6493 
412 1 0 12.3811 14.8568 7.94695 
413 1 0 13.6316 14.7571 7.63895 
414 1 0 14.9423 15.576 8.29555 
415 1 0 15.8962 14.8876 7.36755 
416 1 0 18.4464 15.8095 8.2297 
417 1 0 19.5249 15.4612 7.50295 
418 1 0 20.5087 15.6679 8.4779 
419 1 0 20.849 15.4123 7.32835 
420 1 0 22.8015 15.7921 8.40935 
421 1 0 23.7393 14.9194 8.5321 
422 1 0 27.0545 15.001 7.77405 
423 1 0 28.5666 14.7696 8.12005 
424 1 0 30.5626 15.3745 7.33865 
425 1 0 32.6519 14.9027 7.7066 
426 1 0 34.3631 14.9636 7.86585 
427 1 0 35.7631 15.5365 8.37645 
428 1 0 36.5723 15.6581 7.50975 
429 1 0 37.6421 15.2402 7.67505 
430 1 0 39.6589 14.685 7.37345 
431 1 0 11.9577 16.569 8.5325 
432 1 0 12.845 16.7231 7.31955 
433 1 0 13.7719 15.9686 8.52515 
434 1 0 14.3266 16.6362 7.5342 
435 1 0 15.7832 16.359 7.4377 
436 1 0 17.0214 16.1687 8.16675 
437 1 0 19.6567 16.6178 8.00785 
438 1 0 21.7178 16.262 8.0533 
439 1 0 24.5667 15.9268 8.15925 
440 1 0 25.76 16.5192 7.6889 
441 1 0 27.313 16.487 8.44225 
442 1 0 28.6128 16.2093 8.33045 
443 1 0 30.5582 16.0147 8.45285 
444 1 0 31.6094 16.61 8.49875 
445 1 0 32.7653 16.3834 8.03985 
446 1 0 34.3465 16.9509 7.8729 
447 1 0 34.5466 15.988 8.5239 
448 1 0 35.8507 16.9243 8.00785 
449 1 0 37.3172 16.6625 7.81795 
450 1 0 38.3054 15.8743 8.47595 
451 1 0 39.056 16.7498 7.48275 
452 1 0 39.757 15.9062 8.13015 
453 1 0 41.0879 16.4599 7.80205 
454 1 0 12.4656 17.8793 7.69675 
455 1 0 13.9018 17.6634 8.3902 
456 1 0 15.4033 17.0852 8.4372 
457 1 0 15.2473 18.0877 7.78485 
458 1 0 17.4459 17.2364 7.83985 
459 1 0 18.6358 17.5818 7.8622 
460 1 0 19.5465 18.2572 8.072 
461 1 0 21.1731 17.5221 7.74315 
462 1 0 23.5048 17.1458 8.29205 
463 1 0 24.7754 17.4382 7.53575 
464 1 0 26.8212 17.0835 7.4006 
465 1 0 30.033 17.2304 8.2864 
466 1 0 33.1122 17.7083 7.3628 
467 1 0 34.3256 18.1239 7.8285 
468 1 0 35.6663 18.2241 7.35735 
469 1 0 36.915 18.0029 7.58005 
470 1 0 38.1849 17.5447 7.92165 
471 1 0 39.786 18.2704 8.44555 
472 1 0 41.0247 17.6903 7.70575 
473 1 0 11.5999 18.9552 7.9597 
474 1 0 14.1944 18.7689 7.48485 
475 1 0 17.3748 18.5345 8.08 
476 1 0 19.4217 19.4528 7.4462 
477 1 0 21.6098 18.7788 7.979 
478 1 0 28.1973 18.3244 8.27855 
479 1 0 29.6198 19.4683 8.34665 
480 1 0 30.7786 18.4524 8.26635 
481 1 0 32.1264 18.5828 7.9661 
482 1 0 33.293 19.2529 7.9331 
483 1 0 35.1872 19.2741 8.0167 
484 1 0 36.718 19.2661 7.75705 
485 1 0 38.8131 19.0086 7.6249 
486 1 0 11.8488 20.3554 8.45015 
487 1 0 13.0732 19.8851 8.51935 
488 1 0 15.7901 20.1288 7.5046 
489 1 0 14.6971 19.8581 8.29875 
490 1 0 16.6402 19.7184 8.2873 
491 1 0 17.8924 19.5704 7.88645 
492 1 0 30.8144 20.2637 7.6908 
493 1 0 33.52 20.6575 7.87895 
494 1 0 34.9552 20.3964 7.7731 
495 1 0 36.1798 20.3573 8.5 
496 1 0 37.4534 20.413 7.408 
497 1 0 38.1923 19.9989 8.31445 
498 1 0 40.1675 19.755 7.40035 
499 1 0 40.2882 20.5809 8.31535 
500 1 0 11.3748 21.4783 7.49015 
501 1 0 15.0635 21.4289 8.19615 
502 1 0 16.3093 21.3008 7.60865 
503 1 0 17.6212 21.144 7.962 
504 1 0 19.0105 20.7671 7.41815 
505 1 0 32.5358 21.9149 8.1011 
506 1 0 36.7667 21.4813 7.60765 
507 1 0 39.0405 21.2553 8.3896 
508 1 0 39.5626 21.5257 7.51865 
509 1 0 14.1198 22.4952 8.38875 
510 1 0 14.962 23.0732 7.73435 
511 1 0 18.3099 22.4184 8.3638 
512 1 0 32.0996 22.8475 7.31815 
513 1 0 34.4056 22.1602 7.55555 
514 1 0 36.4126 22.8116 7.68965 
515 1 0 37.849 22.0203 7.4032 
516 1 0 38.1552 22.9193 8.0887 
517 1 0 13.0287 23.4029 8.3036 
518 1 0 12.4311 24.1112 7.39545 
519 1 0 16.1679 23.6369 7.801 
520 1 0 17.9039 23.634 7.63685 
521 1 0 35.0639 23.2246 7.54415 
522 1 0 36.3001 24.3773 7.3176 
523 1 0 38.1656 24.1903 7.6921 
524 1 0 39.3523 23.7255 7.47725 
525 1 0 40.9436 23.3392 8.1465 
526 1 0 14.8955 24.6846 7.9765 
527 1 0 17.388 24.7761 7.853 
528 1 0 31.9926 24.3912 8.22815 
529 1 0 33.2597 24.6388 7.8961 
530 1 0 35.3108 24.6609 8.1771 
531 1 0 39.0979 25.1106 7.78655 
532 1 0 41.1056 24.8323 8.3463 
533 1 0 11.3241 25.9869 7.85465 
534 1 0 12.7027 25.6717 7.57125 
535 1 0 13.8944 26.8015 7.39265 
536 1 0 15.8086 25.7998 7.84565 
537 1 0 17.1039 26.2628 7.74155 
538 1 0 32.0262 26.7609 7.64665 
539 1 0 33.8941 26.7409 7.739 
540 1 0 34.4306 25.6357 8.0564 
541 1 0 35.9134 25.8668 8.2001 
542 1 0 37.8926 25.6199 8.3976 
543 1 0 40.3022 26.5768 8.0117 
544 1 0 11.5955 27.3659 7.6692 
545 1 0 12.5696 26.8461 8.34405 
546 1 0 14.9214 27.4528 8.49065 
547 1 0 16.0432 27.2385 8.03355 
548 1 0 31.6094 27.731 8.31605 
549 1 0 35.0365 27.657 7.6704 
550 1 0 36.0815 26.8573 7.43045 
551 1 0 37.4848 26.9395 7.4837 
552 1 0 13.2746 28.2152 7.83425 
553 1 0 14.3138 28.7547 8.43255 
554 1 0 16.4053 28.9909 7.7544 
555 1 0 17.673 28.4431 7.65265 
556 1 0 32.6269 28.7394 7.83225 
557 1 0 35.0031 28.8967 7.66465 
558 1 0 36.4615 28.0688 7.85695 
559 1 0 38.1615 28.5127 8.1611 
560 1 0 39.4092 28.1138 8.04295 
561 1 0 41.1091 29.2502 7.3317 
562 1 0 40.855 28.064 7.73995 
563 1 0 12.2654 30.0023 7.764 
564 1 0 13.657 29.693 7.98155 
565 1 0 15.1663 29.3701 7.8651 
566 1 0 17.3352 30.1419 7.84095 
567 1 0 18.236 29.3967 8.38245 
568 1 0 19.6481 29.8654 7.9861 
569 1 0 29.882 30.1489 7.446 
570 1 0 31.1839 29.4618 7.67945 
571 1 0 32.5494 30.03 8.1535 
572 1 0 33.6614 29.3103 7.91295 
573 1 0 34.7057 30.1504 7.7617 
574 1 0 36.1422 30.0229 8.03515 
575 1 0 37.4315 29.2884 8.50155 
576 1 0 39.2399 29.5945 8.32885 
577 1 0 39.9916 30.2272 7.45705 
578 1 0 41.2506 30.274 8.41465 
579 1 0 12.9076 31.0164 8.4072 
580 1 0 14.7313 31.4682 7.5516 
581 1 0 15.8127 30.625 7.80685 
582 1 0 16.7887 31.4639 7.51615 
583 1 0 18.0796 31.5179 7.73105 
584 1 0 19.0823 30.8976 7.36705 
585 1 0 28.9598 30.8324 8.2713 
586 1 0 33.5327 30.5464 7.4202 
587 1 0 33.2892 31.3794 8.4664 
588 1 0 35.5746 31.4258 7.8276 
589 1 0 37.9584 31.3478 7.7872 
590 1 0 39.717 31.5456 7.40815 
591 1 0 41.087 31.3516 7.6055 
592 1 0 12.5939 32.0709 7.7837 
593 1 0 13.9724 32.359 7.8904 
594 1 0 16.7523 32.6741 7.9331 
595 1 0 18.4262 32.6756 7.48715 
596 1 0 20.8651 31.9501 7.48035 
597 1 0 20.8154 32.8232 8.48465 
598 1 0 22.0858 32.5701 7.88395 
599 1 0 23.9911 32.4542 7.84325 
600 1 0 26.4381 32.4056 8.033 
601 1 0 27.7166 32.5093 8.4942 
602 1 0 29.1906 32.881 7.81535 
603 1 0 30.0998 31.9442 8.1452 
604 1 0 31.4196 31.7232 7.7969 
605 1 0 32.4208 32.582 8.20095 
606 1 0 33.6958 32.6075 7.5312 
607 1 0 34.5149 32.1171 8.35065 
608 1 0 36.7362 32.1617 8.25805 
609 1 0 38.7837 32.0788 7.86805 
610 1 0 41.1492 32.4801 8.0409 
611 1 0 13.7965 33.7234 7.98495 
612 1 0 15.2836 32.9277 7.68955 
613 1 0 18.2194 33.9379 7.81905 
614 1 0 19.6359 33.0264 7.85025 
615 1 0 21.0682 34.0866 8.35915 
616 1 0 23.0739 32.9399 8.46145 
617 1 0 24.0287 33.8601 8.34325 
618 1 0 25.0973 33.4062 7.7964 
619 1 0 26.5205 33.582 7.3454 
620 1 0 27.7777 33.7 7.89755 
621 1 0 30.5388 33.2003 7.8822 
622 1 0 33.2772 33.8934 8.1391 
623 1 0 35.5678 33.4889 7.63485 
624 1 0 37.9591 33.1278 8.2621 
625 1 0 40.1703 33.5631 8.35645 
626 1 0 39.3403 32.9722 7.4158 
627 1 0 11.6847 35.236 7.93245 
628 1 0 12.7654 34.3309 7.40115 
629 1 0 13.8717 35.0403 7.78415 
630 1 0 15.261 34.2416 7.71885 
631 1 0 16.6177 34.2936 7.73695 
632 1 0 18.2357 35.271 7.89925 
633 1 0 20.3662 35.2587 8.41755 
634 1 0 19.6954 35.2156 7.32365 
635 1 0 22.2133 34.5645 7.64155 
636 1 0 23.0704 35.2565 8.45025 
637 1 0 26.5359 34.9001 7.92785 
638 1 0 28.787 34.2473 8.31675 
639 1 0 29.7667 34.305 7.61355 
640 1 0 31.9048 34.4945 7.957 
641 1 0 33.1975 35.1152 7.6319 
642 1 0 34.3662 35.0196 8.23445 
643 1 0 35.9495 34.9481 8.3781 
644 1 0 37.4673 34.2138 8.4259 
645 1 0 37.962 35.1819 7.71115 
646 1 0 40.6974 34.2734 7.489 
647 1 0 12.2341 36.4759 7.62265 
648 1 0 15.793 36.2219 8.10775 
649 1 0 16.9253 35.566 7.55265 
650 1 0 19.0924 36.3246 7.51965 
651 1 0 22.6434 35.8436 7.3333 
652 1 0 24.8764 35.955 7.4655 
653 1 0 26.0291 36.4593 7.85845 
654 1 0 27.4243 35.8762 7.32955 
655 1 0 28.422 35.5932 8.3922 
656 1 0 29.5366 36.5575 7.36725 
657 1 0 30.9238 35.6646 7.6216 
658 1 0 31.6593 36.0444 8.53045 
659 1 0 33.5645 36.3564 7.3528 
660 1 0 36.1304 36.4859 8.0542 
661 1 0 39.0924 36.403 8.068 
662 1 0 13.4335 37.5947 7.3248 
663 1 0 14.4538 37.2062 8.2223 
664 1 0 17.0023 37.0178 7.80995 
665 1 0 18.1098 36.6674 8.4538 
666 1 0 18.4484 37.6153 7.5457 
667 1 0 19.901 37.4531 7.6786 
668 1 0 21.7805 36.6504 8.1189 
669 1 0 23.1767 37.2994 7.80905 
670 1 0 24.6431 37.1811 7.8645 
671 1 0 26.0962 37.7616 8.27795 
672 1 0 28.256 36.8156 7.7103 
673 1 0 31.185 36.9285 7.6218 
674 1 0 34.5809 36.7204 8.10375 
675 1 0 35.8014 37.7039 8.25665 
676 1 0 40.1987 37.0501 7.7281 
677 1 0 41.3474 37.3913 7.8701 
678 1 0 12.4392 37.8895 7.9952 
679 1 0 18.2028 38.8839 8.30935 
680 1 0 20.8864 37.9041 8.1081 
681 1 0 22.1089 38.1373 8.23945 
682 1 0 24.4961 38.8647 7.49925 
683 1 0 28.0297 38.245 7.7317 
684 1 0 30.1212 37.9193 8.4893 
685 1 0 30.8829 39.0137 8.19 
686 1 0 32.0201 38.116 8.0124 
687 1 0 37.0124 37.8893 7.92035 
688 1 0 39.436 38.0998 7.8452 
689 1 0 11.6129 39.9277 7.89275 
690 1 0 13.6153 39.1747 8.3188 
691 1 0 14.7162 39.1847 7.6545 
692 1 0 16.2211 39.2009 7.75805 
693 1 0 17.3842 40.0065 7.86575 
694 1 0 19.9722 39.8745 8.05775 
695 1 0 21.4344 39.4769 7.74645 
696 1 0 22.7559 40.0037 7.9936 
697 1 0 23.9818 40.1141 7.8778 
698 1 0 25.4443 39.8133 8.4217 
699 1 0 26.7316 39.6027 7.9531 
700 1 0 29.2075 39.4228 8.06045 
701 1 0 33.1535 39.3366 7.4818 
702 1 0 34.2874 39.0793 7.95895 
703 1 0 35.1332 40.1392 7.4171 
704 1 0 36.2507 39.2057 7.57025 
705 1 0 36.9018 39.8656 8.4838 
706 1 0 38.2558 39.5013 8.0088 
707 1 0 39.466 39.5239 7.94635 
708 1 0 12.8393 40.8373 8.4507 
709 1 0 14.4671 40.514 8.05235 
710 1 0 16.0338 40.6432 8.19915 
711 1 0 18.6943 40.8881 7.895 
712 1 0 21.903 40.8141 7.96335 
713 1 0 26.1831 41.1781 8.102 
714 1 0 27.5382 40.5741 8.2127 
715 1 0 30.8154 41.1327 8.2138 
716 1 0 31.754 40.3218 7.50875 
717 1 0 40.1138 41.0776 8.33795 
718 1 0 40.6938 40.5266 7.3327 
719 1 0 13.1796 11.7344 8.735 
720 1 0 16.4461 11.7793 9.559 
721 1 0 18.2915 11.5524 9.2323 
722 1 0 20.0645 11.6573 8.7527 
723 1 0 21.4687 11.63 8.5368 
724 1 0 22.4762 12.0421 9.3063 
725 1 0 27.4294 11.6142 8.8268 
726 1 0 32.0282 11.4229 8.64585 
727 1 0 33.8924 11.092 9.72955 
728 1 0 35.0529 12.0812 9.47695 
729 1 0 37.259 11.197 8.625 
730 1 0 38.723 11.4278 8.6906 
731 1 0 41.1295 11.7681 8.97435 
732 1 0 11.1576 13.2607 9.17965 
733 1 0 12.2065 12.5877 8.6549 
734 1 0 14.4842 12.4401 9.40105 
735 1 0 15.5645 13.3161 9.33345 
736 1 0 17.4869 12.8026 9.39105 
737 1 0 19.0305 12.8452 8.84655 
738 1 0 20.7145 13.3698 8.97825 
739 1 0 24.091 12.3013 8.6974 
740 1 0 23.6266 13.2873 9.4365 
741 1 0 25.1275 12.2891 9.61035 
742 1 0 26.1435 12.9944 9.04215 
743 1 0 27.3596 12.8792 9.54015 
744 1 0 28.6597 12.2492 9.04455 
745 1 0 29.5737 13.034 9.18 
746 1 0 31.5201 12.9034 8.69675 
747 1 0 32.6814 12.2678 9.42595 
748 1 0 35.9184 13.1057 9.1249 
749 1 0 37.049 12.5742 8.6399 
750 1 0 38.561 13.0991 9.0735 
751 1 0 11.3833 14.5021 9.4493 
752 1 0 12.6794 13.7726 8.69435 
753 1 0 12.8599 14.5174 9.61285 
754 1 0 14.0694 13.687 8.8888 
755 1 0 16.0317 14.5857 8.54565 
756 1 0 18.3909 14.4889 8.92045 
757 1 0 19.6675 13.9068 9.3649 
758 1 0 22.2347 13.5443 9.3477 
759 1 0 24.4598 13.9809 8.93665 
760 1 0 27.4676 13.8703 8.71195 
761 1 0 28.7331 13.8593 9.34005 
762 1 0 30.0081 14.4744 9.4831 
763 1 0 31.2902 14.5561 8.8991 
764 1 0 32.6331 13.8029 8.9211 
765 1 0 33.6357 14.1922 9.66625 
766 1 0 34.6378 13.9034 8.90865 
767 1 0 35.9678 14.5561 9.19505 
768 1 0 37.5333 14.0528 8.57745 
769 1 0 39.9371 13.8369 9.5533 
770 1 0 40.6157 14.5137 8.59885 
771 1 0 11.3203 15.4592 8.57465 
772 1 0 12.7458 15.7641 9.4573 
773 1 0 15.2297 14.8252 9.4154 
774 1 0 16.7847 15.4371 9.157 
775 1 0 20.4425 15.1373 9.62745 
776 1 0 21.4399 14.7443 9.24355 
777 1 0 22.8526 14.7067 9.4637 
778 1 0 26.0704 15.5716 8.8073 
779 1 0 27.3641 15.285 8.983 
780 1 0 28.7872 15.2713 9.2225 
781 1 0 31.2502 15.6149 9.71415 
782 1 0 32.8504 15.4441 8.9856 
783 1 0 34.5523 15.0935 9.63655 
784 1 0 36.4725 15.6657 9.65125 
785 1 0 37.4069 15.2074 9.0753 
786 1 0 38.7882 14.741 9.66635 
787 1 0 39.9967 15.4592 9.75435 
788 1 0 39.2929 14.8344 8.5863 
789 1 0 15.1391 16.177 9.54825 
790 1 0 16.3493 16.6165 9.2526 
791 1 0 18.5164 15.9296 9.4445 
792 1 0 19.132 17.0025 8.95085 
793 1 0 21.1994 16.394 9.284 
794 1 0 22.6467 16.6973 9.37095 
795 1 0 23.8567 15.8805 9.4085 
796 1 0 24.6395 16.9513 9.03875 
797 1 0 25.6105 16.6303 9.6701 
798 1 0 28.4554 16.5759 9.4961 
799 1 0 30.0178 16.163 9.5734 
800 1 0 32.3058 16.4874 9.61115 
801 1 0 33.8736 16.5102 9.39365 
802 1 0 35.3833 16.5047 9.38675 
803 1 0 40.1348 16.9935 8.81715 
804 1 0 11.3914 17.9032 9.10705 
805 1 0 12.6594 17.2792 9.48245 
806 1 0 13.8278 18.0289 9.57055 
807 1 0 16.3192 18.2834 8.89495 
808 1 0 17.727 17.1777 9.0664 
809 1 0 20.4712 17.5774 8.71415 
810 1 0 21.6929 17.5943 8.939 
811 1 0 23.8672 18.0715 9.35255 
812 1 0 26.1292 17.3379 8.7541 
813 1 0 26.978 18.1322 8.71225 
814 1 0 29.2202 17.6847 9.2949 
815 1 0 30.9156 17.1257 9.56255 
816 1 0 32.0798 17.7271 8.8409 
817 1 0 33.3884 17.6368 8.9181 
818 1 0 35.2261 17.6997 8.93435 
819 1 0 36.5028 17.43 9.12 
820 1 0 37.5705 17.7324 9.49935 
821 1 0 38.7771 17.1096 9.0241 
822 1 0 12.7359 18.5952 8.84955 
823 1 0 13.8431 19.4348 9.5659 
824 1 0 14.9123 18.6563 8.91595 
825 1 0 16.3085 19.3165 9.61355 
826 1 0 17.6686 18.3928 9.6272 
827 1 0 18.6842 18.6713 8.8609 
828 1 0 20.267 19.1555 8.54565 
829 1 0 22.5228 18.3188 9.59665 
830 1 0 28.0694 18.5027 9.61555 
831 1 0 30.2016 18.4747 9.60035 
832 1 0 31.6696 18.7917 9.39145 
833 1 0 33.0579 18.8893 9.70125 
834 1 0 34.3545 18.6589 8.9904 
835 1 0 36.0495 19.1553 9.00235 
836 1 0 37.6034 18.82 8.62035 
837 1 0 38.8782 18.5196 9.4821 
838 1 0 40.0981 19.278 9.16305 
839 1 0 15.0814 19.7653 9.70735 
840 1 0 15.6735 20.6234 9.1868 
841 1 0 17.2985 20.418 9.04325 
842 1 0 18.6904 20.1657 8.8944 
843 1 0 30.7382 20.0004 8.9031 
844 1 0 32.6186 19.8632 8.80355 
845 1 0 33.4425 20.7005 9.19795 
846 1 0 38.1831 20.4394 9.589 
847 1 0 39.264 20.2076 9.12445 
848 1 0 41.2041 19.8907 9.25125 
849 1 0 11.2761 21.2287 9.03095 
850 1 0 12.5116 20.735 9.69835 
851 1 0 14.1403 21.1835 9.7074 
852 1 0 13.4182 21.2813 8.6522 
853 1 0 16.9433 21.7626 8.91915 
854 1 0 32.221 21.913 9.41105 
855 1 0 31.8796 20.8741 8.646 
856 1 0 33.5436 21.8632 9.6056 
857 1 0 34.5042 21.2561 8.817 
858 1 0 35.6558 20.7683 9.61345 
859 1 0 35.8675 21.9055 8.6634 
860 1 0 36.9816 20.9454 9.2588 
861 1 0 37.847 21.7019 8.7457 
862 1 0 40.0936 21.4097 9.61775 
863 1 0 12.2424 22.0611 8.59455 
864 1 0 13.2638 22.6474 9.2336 
865 1 0 15.7971 22.3705 8.78815 
866 1 0 17.6177 22.8507 9.7255 
867 1 0 32.2638 23.1497 9.07885 
868 1 0 33.3987 22.6397 8.57185 
869 1 0 34.7649 22.6647 9.2057 
870 1 0 37.1642 22.6249 8.9734 
871 1 0 38.2753 22.9497 9.6513 
872 1 0 39.3773 22.9141 8.6349 
873 1 0 40.7092 22.2012 8.70955 
874 1 0 11.757 23.8984 8.5822 
875 1 0 13.7482 24.33 8.93945 
876 1 0 14.4712 23.4308 9.5564 
877 1 0 15.4029 24.0589 9.0567 
878 1 0 17.0114 23.2289 8.692 
879 1 0 18.1451 24.0568 8.9792 
880 1 0 32.8164 24.1743 9.65605 
881 1 0 34.2074 23.7558 8.6609 
882 1 0 36.1889 23.5784 8.7882 
883 1 0 37.4627 23.8214 8.55275 
884 1 0 40.004 24.2372 8.8876 
885 1 0 41.109 24.3778 9.6432 
886 1 0 11.9979 25.3527 9.3521 
887 1 0 13.1983 25.5174 8.7625 
888 1 0 16.5229 24.6185 8.89935 
889 1 0 17.0569 25.5897 9.5942 
890 1 0 32.3473 25.3958 9.17715 
891 1 0 33.783 25.0481 9.1987 
892 1 0 35.7446 24.9141 9.3877 
893 1 0 37.2196 24.6833 9.2938 
894 1 0 38.7791 24.6134 8.92155 
895 1 0 38.5049 25.4073 9.74815 
896 1 0 40.211 25.3607 9.6785 
897 1 0 14.4493 26.0662 8.54155 
898 1 0 13.6012 26.5929 9.303 
899 1 0 15.7186 25.9153 8.982 
900 1 0 17.8416 26.2838 8.7985 
901 1 0 33.1613 26.1523 8.59355 
902 1 0 34.5826 25.7834 9.57575 
903 1 0 37.0162 26.0201 9.3878 
904 1 0 38.2726 26.7918 8.7239 
905 1 0 39.3631 26.2852 8.709 
906 1 0 41.0886 26.2468 9.0872 
907 1 0 12.1477 26.9176 9.45195 
908 1 0 13.7431 27.9989 9.1286 
909 1 0 16.3145 27.2099 9.5028 
910 1 0 17.2996 27.4947 8.5423 
911 1 0 32.7163 28.0227 9.69865 
912 1 0 33.0669 27.5244 8.6516 
913 1 0 34.3937 27.1172 8.81105 
914 1 0 35.5999 27.5164 9.1492 
915 1 0 36.7972 27.038 8.64325 
916 1 0 37.8065 27.8819 9.0046 
917 1 0 39.7435 27.5217 9.15125 
918 1 0 41.0083 27.5081 9.0855 
919 1 0 11.4546 28.9474 8.89725 
920 1 0 12.6664 28.5777 9.18695 
921 1 0 15.3209 28.4476 9.7456 
922 1 0 15.8747 28.7496 8.8407 
923 1 0 18.2076 29.2318 9.61325 