LAMMPS (15 Apr 2020)
OMP_NUM_THREADS environment is not set. Defaulting to 1 thread. (../comm.cpp:94)
  using 1 OpenMP thread(s) per MPI task
# Input file for uniaxial tensile loading of single crystal aluminum
# Mark Tschopp, November 2010

# ------------------------ INITIALIZATION ----------------------------
units 		real
dimension	3
boundary	p	p	p
atom_style	charge
#variable latparam equal 4.05

# ----------------------- ATOM DEFINITION ----------------------------
read_data	SiNW_SiO2_5A.data
  orthogonal box = (0 0 0) to (50 50 50)
  1 by 1 by 1 MPI processor grid
  reading atoms ...
  1321 atoms
  read_data CPU = 0.019973 secs
# ------------------------ FORCE FIELDS ------------------------------
pair_style      reax/c lmp_control
pair_coeff      * * ffield_Li_Si_Al_O Si O
WARNING: Changed valency_val to valency_boc for X (../reaxc_ffield.cpp:315)

# ------------------------- SETTINGS ---------------------------------
compute peratom all pe/atom
compute csym all centro/atom 12
compute reax all pair reax/c

######################################
# EQUILIBRATION
reset_timestep	0
timestep 0.01
velocity all create 300 12345 mom yes rot no
fix 1 all npt temp 300 300 1 iso 0 0 1 drag 1
fix 3 all qeq/reax 1 0.0 10.0 1e-6 reax/c
# Set thermo output
thermo 200
thermo_style custom step lx ly lz press pxx pyy pzz pe temp

# Run for at least 10 picosecond (assuming 1 fs timestep)
run 10000
Neighbor list info ...
  update every 1 steps, delay 10 steps, check yes
  max neighbors/atom: 2000, page size: 100000
  master list distance cutoff = 12
  ghost atom cutoff = 12
  binsize = 6, bins = 9 9 9
  3 neighbor lists, perpetual/occasional/extra = 2 1 0
  (1) pair reax/c, perpetual
      attributes: half, newton off, ghost
      pair build: half/bin/newtoff/ghost
      stencil: half/ghost/bin/3d/newtoff
      bin: standard
  (2) compute centro/atom, occasional
      attributes: full, newton on
      pair build: full/bin/atomonly
      stencil: full/bin/3d
      bin: standard
  (3) fix qeq/reax, perpetual, copy from (1)
      attributes: half, newton off, ghost
      pair build: copy
      stencil: none
      bin: none
Per MPI rank memory allocation (min/avg/max) = 45.32 | 45.32 | 45.32 Mbytes
Step Lx Ly Lz Press Pxx Pyy Pzz PotEng Temp 
       0           50           50           50    9095.0243    7043.0931    7970.0512    12271.929   -152943.35          300 
     200     50.98784     50.98784     50.98784    66.743451   -846.20949   -2492.1087    3538.5485      -155541     685.4015 
     400    50.768673    50.768673    50.768673   -20.246436   -632.59677   -1158.6782    1730.5357   -158726.32    861.04544 
     600    50.590701    50.590701    50.590701    233.12016   -139.48292    405.46134    433.38206   -160856.97    756.35866 
     800     50.47025     50.47025     50.47025    -54.32238    -749.4601    232.87312    353.61983   -162353.82    656.01804 
    1000    50.375731    50.375731    50.375731    23.188304   -438.21576    685.43445   -177.65377   -163424.63    572.95764 
    1200    50.311038    50.311038    50.311038   0.27346807   -378.05461    895.72828   -516.85327   -164224.95    511.01818 
    1400    50.282855    50.282855    50.282855     1.088184   -1043.5249    846.69629    200.09316   -164864.73    467.65439 
    1600    50.255735    50.255735    50.255735    12.908078   -760.68926    342.34909     457.0644   -165349.75    431.41131 
    1800    50.269454    50.269454    50.269454  -0.89468998   -922.89769    597.42079    322.79283   -165740.83    404.73229 
    2000    50.317896    50.317896    50.317896   -7.2074906   -575.25846     607.3944   -53.758415   -166100.76    390.82607 
    2200    50.375145    50.375145    50.375145   -1.0882253    26.591447    599.06448    -628.9206   -166400.96     374.4384 
    2400    50.406944    50.406944    50.406944   -3.6080345    168.72409      123.229   -302.77719   -166707.57    372.18627 
    2600    50.397867    50.397867    50.397867   -4.6268335   -87.840556    202.52912   -128.56906   -167017.46    371.21744 
    2800    50.370825    50.370825    50.370825    11.644189    265.10212    384.29749   -614.46705   -167333.56    371.32545 
    3000    50.351495    50.351495    50.351495    8.2289188   -170.43694    469.67249    -274.5488   -167582.77    359.11853 
    3200    50.328706    50.328706    50.328706    6.4556701    333.28279    424.35577   -738.27156    -167815.1     353.2778 
    3400    50.332883    50.332883    50.332883   -5.4199913    526.00553    463.54821   -1005.8137   -168028.86    346.65049 
    3600     50.32532     50.32532     50.32532   -7.9833516   -48.684952    600.23515   -575.50026   -168259.47    348.39276 
    3800    50.325389    50.325389    50.325389   -6.6834485   -19.343654    539.02039   -539.72709   -168448.16    340.83789 
    4000    50.318879    50.318879    50.318879    1.8071324    454.00678    352.38599   -800.97138   -168613.84    334.81187 
    4200    50.303931    50.303931    50.303931   -4.6692781    676.16775    53.609655   -743.78524   -168770.15    331.06365 
    4400    50.279061    50.279061    50.279061   -1.3487199   -198.39055    51.067019    143.27737   -168948.44    333.44432 
    4600    50.265643    50.265643    50.265643   -4.8800463   -81.258128    53.846608    12.771382   -169114.68    332.44915 
    4800    50.248417    50.248417    50.248417   -2.1029323    153.12533    177.27505   -336.70918   -169289.78     333.4936 
    5000     50.22071     50.22071     50.22071   -4.8406937    402.16666    76.460025   -493.14877   -169456.71    331.89717 
    5200    50.206535    50.206535    50.206535   0.96384694   -259.51365    315.31751   -52.912312   -169586.38     325.5661 
    5400    50.195238    50.195238    50.195238   -10.566002    76.054869    269.04499   -376.79787   -169716.35    323.54265 
    5600    50.166237    50.166237    50.166237     2.474475    427.33022    97.983993   -517.89078   -169846.63    322.49085 
    5800     50.15559     50.15559     50.15559    -4.248606   -206.50726    429.79859   -236.03715   -169948.76    317.59435 
    6000    50.161403    50.161403    50.161403    1.2712919     134.5602   -12.910988   -117.83534   -170056.25    316.74887 
    6200    50.154052    50.154052    50.154052    11.226638    539.43606    -751.1621    245.40595   -170162.45     316.5392 
    6400    50.147962    50.147962    50.147962    2.8253213    426.96733   -235.51588   -182.97548   -170295.96    321.29758 
    6600     50.12984     50.12984     50.12984   -1.6395266    962.71271   -461.18494   -506.44635   -170402.79    317.75646 
    6800    50.100403    50.100403    50.100403    2.3494964    399.32453   -327.24488   -65.031162   -170514.96    316.93824 
    7000    50.059927    50.059927    50.059927    -5.696003     485.1639   -662.03186    159.77995   -170602.65    313.78137 
    7200    50.025419    50.025419    50.025419   -17.015115    772.71115   -636.67787   -187.07862   -170691.64    312.59699 
    7400    50.002514    50.002514    50.002514   -6.0495481    383.43583   -368.54298   -33.041501   -170772.68    311.02826 
    7600    49.987638    49.987638    49.987638   -8.6708589    535.63112   -717.79429     156.1506   -170860.38     311.9369 
    7800      49.9597      49.9597      49.9597   -18.811786    923.33401   -814.23195   -165.53742   -170963.92    313.90941 
    8000    49.932865    49.932865    49.932865   -1.3812358     918.3581   -685.84033   -236.66148   -171057.14    313.44486 
    8200    49.920532    49.920532    49.920532    7.0343701    776.16263   -517.45378   -237.60574   -171149.33    312.97472 
    8400    49.913389    49.913389    49.913389    1.2641508    725.12163   -149.11019   -572.21898   -171235.83    311.82572 
    8600    49.906265    49.906265    49.906265    5.4043129    492.16669   -471.18418   -4.7695668   -171314.81    310.38038 
    8800    49.898056    49.898056    49.898056   -7.9366464    469.45959   -403.66314   -89.606383   -171397.96     310.3264 
    9000    49.874134    49.874134    49.874134   -6.5220614    517.41244   -270.78203    -266.1966   -171468.63     309.0825 
    9200    49.849919    49.849919    49.849919   -5.7090219    672.74285   -499.83354   -190.03638   -171525.84    306.60964 
    9400    49.836686    49.836686    49.836686   0.31690449    874.08096     -477.779   -395.35125    -171587.5    306.52599 
    9600    49.821353    49.821353    49.821353    1.0504912    917.76328   -471.03232   -443.57949   -171645.88    306.46018 
    9800    49.799504    49.799504    49.799504  -0.14043011    127.02509    153.26033   -280.70671   -171689.69    304.66552 
   10000    49.784595    49.784595    49.784595   -1.8802853    83.537135    234.26351    -323.4415   -171746.42    306.36203 
Loop time of 875.934 on 1 procs for 10000 steps with 1321 atoms

Performance: 0.010 ns/day, 2433.150 hours/ns, 11.416 timesteps/s
98.1% CPU use with 1 MPI tasks x 1 OpenMP threads

MPI task timing breakdown:
Section |  min time  |  avg time  |  max time  |%varavg| %total
---------------------------------------------------------------
Pair    | 709.61     | 709.61     | 709.61     |   0.0 | 81.01
Neigh   | 0.032048   | 0.032048   | 0.032048   |   0.0 |  0.00
Comm    | 0.069896   | 0.069896   | 0.069896   |   0.0 |  0.01
Output  | 0.46398    | 0.46398    | 0.46398    |   0.0 |  0.05
Modify  | 165.69     | 165.69     | 165.69     |   0.0 | 18.92
Other   |            | 0.06551    |            |       |  0.01

Nlocal:    1321 ave 1321 max 1321 min
Histogram: 1 0 0 0 0 0 0 0 0 0
Nghost:    638 ave 638 max 638 min
Histogram: 1 0 0 0 0 0 0 0 0 0
Neighs:    184107 ave 184107 max 184107 min
Histogram: 1 0 0 0 0 0 0 0 0 0
FullNghs:  0 ave 0 max 0 min
Histogram: 1 0 0 0 0 0 0 0 0 0

Total # of neighbors = 184107
Ave neighs/atom = 139.369
Neighbor list builds = 5
Dangerous builds = 1
unfix 1

# Store final cell length for strain calculations
variable tmp equal "lz"
variable L0 equal ${tmp}
variable L0 equal 49.7845949281262
print "Initial Length, L0: ${L0}"
Initial Length, L0: 49.7845949281262

######################################
# DEFORMATION
reset_timestep	0

fix		1 all npt temp 300 300 1 x 0 0 1 y 0 0 1 drag 1
variable srate equal 1.0e10
variable srate1 equal "v_srate / 1.0e12"
fix		2 all deform 1 z erate ${srate1} remap x units box
fix		2 all deform 1 z erate 0.01 remap x units box

# Output strain and stress info to file
# for units metal, pressure is in [bars] = 100 [kPa] = 1/10000 [GPa]
# p2, p3, p4 are in GPa
variable strain equal "(lz - v_L0)/v_L0"
variable p1 equal "v_strain"
variable p2 equal "-pxx/10000"
variable p3 equal "-pyy/10000"
variable p4 equal "-pzz/10000"
fix def1 all print 100 "${p1} ${p2} ${p3} ${p4}" file SiNT_100.def1.txt screen no

# Use cfg for AtomEye
dump 		1 all custom 100 dump.tensile id type x y z c_csym c_peratom fx fy fz


# Display thermo
thermo 	200
thermo_style	custom step v_strain temp v_p2 v_p3 v_p4 ke pe press

run		10000
Per MPI rank memory allocation (min/avg/max) = 48.1 | 48.1 | 48.1 Mbytes
Step v_strain Temp v_p2 v_p3 v_p4 KinEng PotEng Press 
       0 -7.1361707e-16    306.36203 -0.0083498412 -0.023422497   0.03234803    1205.4333   -171746.42   -1.9189717 
     200         0.02    313.36893 -0.0034191053 -0.003737932   0.99803249    1233.0031   -171606.39   -3302.9182 
     400         0.04    325.16974 -0.00032019922 -0.0024032356    1.4371644    1279.4354   -171320.55   -4781.4698 
     600         0.06     327.4915 0.0026116271 0.0020637936    1.9040614    1288.5707   -170876.97    -6362.456 
     800         0.08    339.24807 0.0027549859   0.00244357     2.338596     1334.829   -170338.09   -7812.6486 
    1000          0.1    352.23461 -0.00045499365 0.00052417572    2.7566846    1385.9267   -169714.86   -9189.1792 
    1200         0.12    366.34093 0.0011603777 0.0010344859    3.0506232    1441.4304   -169041.72    -10176.06 
    1400         0.14    380.18436 0.00036817776 -0.00019146832    3.3617738    1495.8997   -168329.47   -11206.502 
    1600         0.16    395.86708 -0.0010631812 -0.0015676992    3.6587738    1557.6061   -167596.33   -12187.143 
    1800         0.18    406.61773 0.0015730282 0.0014780561    3.9034464    1599.9063   -166824.07   -13021.658 
    2000          0.2    414.53364 -9.2569448e-05 5.1501691e-05    4.1026783    1631.0528   -166025.84   -13675.458 
    2200         0.22    422.50362 0.00089697495 0.00057807048    4.3077104     1662.412    -165213.9   -14363.952 
    2400         0.24    431.10911  0.001054072 0.00098131793    4.5376098    1696.2717   -164391.15   -15132.151 
    2600         0.26    439.97298 0.00041329879 0.00034045737     4.764701    1731.1481   -163556.39   -15884.849 
    2800         0.28     444.2638 0.00030054923 0.00064104851    4.9273174    1748.0311   -162697.12    -16427.53 
    3000          0.3    449.50407 0.00020144439 0.00014983994    5.0830922    1768.6499   -161837.78   -16944.812 
    3200         0.32    457.58477 0.0002261274 0.00029086408    5.2383579    1800.4447   -160998.39   -17462.916 
    3400         0.34    462.79844 0.00036708885 0.00022632021    5.3794821    1820.9588   -160162.48   -17933.585 
    3600         0.36    466.58654 0.0005616809 0.00039794024    5.5004065    1835.8637   -159327.73   -18337.887 
    3800         0.38    469.92577 0.00016664777 3.9182769e-05    5.6417457    1849.0025   -158498.28   -18806.505 
    4000          0.4    474.81434 -5.7736885e-05 0.00011663737    5.7259511    1868.2374   -157688.68     -19086.7 
    4200         0.42    476.73372 0.00045758764 0.00045665576     5.865766    1875.7895   -156882.11   -19555.601 
    4400         0.44    476.93044 -0.00017296584 -0.00026793512    5.9697125    1876.5636   -156066.61   -19897.572 
    4600         0.46     476.4508 -5.0937454e-05 2.284267e-05    6.1011141    1874.6763   -155246.01   -20336.953 
    4800         0.48    477.28517 0.00011648111 0.00013813069     6.240545    1877.9593   -154421.49   -20802.665 
    5000          0.5    479.59197 0.00021456485 0.00015019925    6.3977543    1887.0358   -153596.99   -21327.064 
    5200         0.52    481.76733 0.00033366139 0.00021820942    6.5300622    1895.5951   -152774.88   -21768.714 
    5400         0.54    482.26834 0.00022966191 0.00021246844    6.6200152    1897.5664   -151953.25   -22068.191 
    5600         0.56     484.1823 0.00014516136 0.00026612689    6.7720148    1905.0972   -151137.24   -22574.754 
    5800         0.58    488.86217 0.0005762866 0.00091727738    6.8757367    1923.5109   -150348.72   -22924.101 
    6000          0.6    483.90358 0.00035000012 0.00041674772      7.03257    1904.0006   -149513.43   -23444.456 
    6200         0.62    485.65744 0.00026378569 -0.00030022786    7.1911796    1910.9014   -148687.43   -23970.477 
    6400         0.64    489.18595 0.00081076281 0.00013886412    7.2182727    1924.7849   -147889.56   -24064.075 
    6600         0.66    496.42826 -0.0010378345 -0.00081712671    7.3191453     1953.281   -147145.15   -24390.968 
    6800         0.68    511.19379 0.00035993238 -3.5848473e-05    7.2530856    2011.3785   -146492.93   -24178.032 
    7000          0.7    507.78425 0.00037442425 0.00037677634    7.5075263    1997.9631   -145797.33   -25027.592 
    7200         0.72      512.481 0.00044064976 0.00055578292    7.6655413    2016.4432   -145134.99   -25555.126 
    7400         0.74    519.54104 0.00011801504 -0.00012532316    7.9608582    2044.2222   -144488.19    -26536.17 
    7600         0.76    521.73836 1.8558516e-05 0.00016371716    7.9164107    2052.8679   -143839.67   -26388.643 
    7800         0.78     517.2669 0.0007288484 0.00033532842    7.9924221    2035.2742   -143172.56   -26644.954 
    8000          0.8    525.30884 0.00052254632 8.354423e-05    8.2419756    2066.9165   -142573.32   -27475.272 
    8200         0.82    531.44647 0.00033299009 0.00035078608    8.5728053    2091.0661    -141946.7   -28578.297 
    8400         0.84    540.28425 0.00045877811 0.00019019357    8.6516367    2125.8398   -141359.01   -28840.952 
    8600         0.86    543.25575 5.6113097e-05 0.00059300885     8.713106    2137.5317   -140796.73   -29045.851 
    8800         0.88    543.13709 0.00018605587 0.00035594875     9.093993    2137.0648   -140206.82   -30315.117 
    9000          0.9    548.21614 0.00056923458 -3.4702288e-05    8.9922372    2157.0492   -139626.11   -29975.906 
    9200         0.92    556.20567 0.00066036022 0.00042712666    9.1800371    2188.4854   -139114.43   -30603.748 
    9400         0.94    555.19797 0.00016690933 8.7434921e-05    9.2262411    2184.5204   -138579.47   -30754.985 
    9600         0.96    557.22661 0.00029849336 0.00019153741    9.4165334    2192.5024   -138058.76   -31390.078 
    9800         0.98    564.36676 1.8947918e-06 9.8247331e-05    9.5748182    2220.5966   -137555.94   -31916.394 
   10000            1    568.57427 -7.4858819e-05 0.0003449392    9.6760553    2237.1517   -137063.79   -32254.418 
Loop time of 974.162 on 1 procs for 10000 steps with 1321 atoms

Performance: 0.009 ns/day, 2706.007 hours/ns, 10.265 timesteps/s
97.6% CPU use with 1 MPI tasks x 1 OpenMP threads

MPI task timing breakdown:
Section |  min time  |  avg time  |  max time  |%varavg| %total
---------------------------------------------------------------
Pair    | 817.68     | 817.68     | 817.68     |   0.0 | 83.94
Neigh   | 0.20688    | 0.20688    | 0.20688    |   0.0 |  0.02
Comm    | 0.11185    | 0.11185    | 0.11185    |   0.0 |  0.01
Output  | 1.9177     | 1.9177     | 1.9177     |   0.0 |  0.20
Modify  | 154.15     | 154.15     | 154.15     |   0.0 | 15.82
Other   |            | 0.1011     |            |       |  0.01

Nlocal:    1321 ave 1321 max 1321 min
Histogram: 1 0 0 0 0 0 0 0 0 0
Nghost:    1313 ave 1313 max 1313 min
Histogram: 1 0 0 0 0 0 0 0 0 0
Neighs:    145781 ave 145781 max 145781 min
Histogram: 1 0 0 0 0 0 0 0 0 0
FullNghs:  278764 ave 278764 max 278764 min
Histogram: 1 0 0 0 0 0 0 0 0 0

Total # of neighbors = 278764
Ave neighs/atom = 211.025
Neighbor list builds = 53
Dangerous builds = 0

######################################
# SIMULATION DONE
print "All done"
All done

Please see the log.cite file for references relevant to this simulation

Total wall time: 0:30:50
