LAMMPS data file for silica coating silicon nanowire

1321 atoms
2 atom types


0.00 50.00  xlo xhi
0.00 50.00  ylo yhi
0.00 50.00  zlo zhi

Masses 

1 28.0855
2 15.9994

Atoms

1	2	-0.65	0	14.64445	0.23845
2	2	-0.65	27.322	13.8126	0.301227
3	2	-0.65	29.7297	14.94455	0.60255
4	2	-0.65	17.1177	17.2381	1.11335
5	2	-0.65	22.04475	16.57785	1.9449
6	1	1.3	23.29995	15.7733	1.25013
7	2	-0.65	24.0402	16.82235	0.27865
8	2	-0.65	24.35735	15.23385	2.42515
9	1	1.3	30.3195	16.1078	1.58528
10	2	-0.65	31.00725	17.36935	0.7579
11	2	-0.65	31.55845	15.3648	2.3055
12	1	1.3	19.5781	19.71885	0.79531
13	2	-0.65	21.0152	19.06165	1.4144
14	2	-0.65	33.40715	18.4587	0.48265
15	1	1.3	34.01045	19.3785	1.650765
16	1	1.3	14.35345	21.0271	0.539775
17	2	-0.65	14.8511	22.32355	1.53505
18	2	-0.65	17.4115	22.4575	2.18714
19	2	-0.65	18.5833	20.1011	1.9993
20	2	-0.65	32.86235	20.3759	2.3704
21	2	-0.65	35.29715	20.15555	0.954
22	1	1.3	35.9	21.51795	0.239988
23	1	1.3	16.07825	23.35085	1.75491
24	2	-0.65	16.55155	24.19275	0.4484
25	1	1.3	32.253	24.6141	0.3181365
26	2	-0.65	36.30185	22.7731	1.21235
27	2	-0.65	13.99425	26.25255	1.8846
28	2	-0.65	33.4512	25.3407	1.1514
29	1	1.3	33.88865	26.61135	2.074585
30	2	-0.65	34.99865	27.4016	1.1568
31	2	-0.65	14.67145	29.72935	1.051
32	2	-0.65	31.5352	29.73415	2.11395
33	2	-0.65	32.62325	27.523	2.41838
34	1	1.3	35.598	28.76375	0.52427
35	1	1.3	15.94595	30.25515	1.96774
36	2	-0.65	17.2045	30.6445	0.957275
37	2	-0.65	18.9762	32.3997	0.27255
38	2	-0.65	26.26425	32.43885	0.61985
39	1	1.3	30.4346	30.78	1.65148
40	2	-0.65	30.95725	31.82745	0.4712
41	1	1.3	19.67675	33.6972	1.07877
42	2	-0.65	18.4863	34.3295	1.932945
43	2	-0.65	20.98695	33.1476	1.83545
44	2	-0.65	20.1561	34.98805	0.27075
45	1	1.3	26.79005	33.4978	1.77134
46	2	-0.65	25.60395	34.54985	2.20955
47	2	-0.65	27.93375	34.5359	1.19975
48	2	-0.65	32.7348	33.6525	1.270295
49	1	1.3	28.59325	35.533	0.1111395
50	2	-0.65	23.8264	13.1163	3.8186
51	1	1.3	25.03305	13.9563	3.08144
52	2	-0.65	26.19835	14.3532	4.15995
53	2	-0.65	19.28785	15.2694	3.7321
54	1	1.3	19.74455	16.49865	4.658575
55	2	-0.65	29.12075	16.67515	2.522
56	2	-0.65	27.9478	16.06505	4.83395
57	1	1.3	28.47385	17.32325	3.91677
58	2	-0.65	20.3298	17.6904	3.70125
59	1	1.3	21.51275	17.97065	2.553995
60	2	-0.65	29.8389	18.08315	4.45965
61	2	-0.65	34.5735	18.3509	2.73205
62	2	-0.65	16.8379	20.47425	3.89915
63	1	1.3	18.0449	21.23095	3.04849
64	2	-0.65	31.6861	20.018	4.841135
65	1	1.3	32.35595	21.08125	3.7682
66	2	-0.65	33.60135	21.79875	4.4431
67	2	-0.65	13.1384	24.7894	3.93565
68	2	-0.65	15.5745	24.31775	2.93497
69	2	-0.65	35.2158	23.8025	4.62497
70	2	-0.65	36.9484	24.804	3.009505
71	1	1.3	14.44655	25.42415	3.245805
72	2	-0.65	15.1171	26.5216	4.2809
73	2	-0.65	34.56255	26.08385	3.47955
74	1	1.3	35.75765	25.25245	4.1411
75	2	-0.65	17.3774	27.5554	4.79925
76	2	-0.65	16.5956	29.06285	2.9677
77	1	1.3	17.97505	28.38825	3.54558
78	2	-0.65	19.10615	29.5312	3.88935
79	1	1.3	32.1096	28.81805	3.255975
80	2	-0.65	33.2861	29.6419	3.95515
81	2	-0.65	15.44975	31.45765	2.99075
82	1	1.3	19.71985	30.6313	4.84685
83	2	-0.65	20.28015	31.9859	4.0585
84	2	-0.65	29.8243	31.67855	2.889
85	1	1.3	28.57175	32.06065	3.9137
86	2	-0.65	34.5227	31.89165	4.55975
87	1	1.3	21.527	32.5651	3.28341
88	2	-0.65	22.11015	33.8057	4.1333
89	2	-0.65	27.28915	32.6611	3.0985
90	2	-0.65	31.66985	34.31665	4.97875
91	2	-0.65	24.13405	35.5823	4.20535
92	1	1.3	25.2202	35.9226	3.00853
93	2	-0.65	26.49135	36.587	3.75305
94	1	1.3	21.42265	14.91255	6.5895
95	2	-0.65	22.76455	14.039	6.10405
96	2	-0.65	27.35155	14.2435	6.71545
97	1	1.3	28.7054	13.7387	7.4288
98	2	-0.65	18.3552	16.95775	5.4576
99	2	-0.65	21.0114	16.05235	5.5695
100	1	1.3	26.76025	15.13535	5.4939
101	2	-0.65	25.5449	16.1863	5.7965
102	2	-0.65	33.34695	17.43625	6.65145
103	2	-0.65	17.19515	19.2866	6.27435
104	2	-0.65	15.01905	18.8551	5.31405
105	1	1.3	17.67955	17.786	6.71945
106	1	1.3	25.07725	17.58265	6.5115
107	2	-0.65	30.87735	18.4863	6.86475
108	1	1.3	30.40825	19.24465	5.4814
109	1	1.3	14.2847	21.9481	6.9871
110	2	-0.65	15.51115	21.41355	6.0723
111	1	1.3	16.1484	20.0907	5.33565
112	2	-0.65	34.9839	22.2271	6.67505
113	1	1.3	35.90685	20.98945	7.32015
114	2	-0.65	13.61685	23.19605	6.1774
115	1	1.3	17.8396	24.6467	6.835
116	2	-0.65	32.8332	23.7688	6.00785
117	1	1.3	34.10815	22.937	5.49705
118	2	-0.65	16.60515	25.3688	6.11475
119	1	1.3	16.0986	26.7813	5.50205
120	1	1.3	32.1656	25.1382	6.6799
121	2	-0.65	33.2406	26.07785	7.34925
122	2	-0.65	36.35585	25.97105	5.5158
123	2	-0.65	15.50455	27.83245	6.57115
124	1	1.3	35.6351	29.1269	7.4071
125	2	-0.65	35.11735	29.72335	6.00455
126	1	1.3	17.8568	32.054	6.96335
127	2	-0.65	18.47285	31.08015	5.8204
128	1	1.3	24.99035	32.2432	6.40785
129	2	-0.65	32.6308	30.68675	6.26875
130	1	1.3	33.9077	30.49805	5.20255
131	2	-0.65	17.28405	33.44975	6.32905
132	1	1.3	23.3007	34.51815	5.06295
133	2	-0.65	24.3943	33.3665	5.33405
134	2	-0.65	26.29975	32.9393	7.17745
135	2	-0.65	29.08945	33.11215	5.06935
136	1	1.3	30.37685	33.73715	5.8377
137	2	-0.65	30.98545	32.6445	6.9213
138	2	-0.65	22.76775	35.23075	6.44565
139	1	1.3	28.6677	36.04035	7.0552
140	2	-0.65	29.97295	35.1561	6.58075
141	2	-0.65	29.62555	14.9972	7.83
142	2	-0.65	16.4524	17.14295	7.5027
143	2	-0.65	22.49845	17.3098	9.8906
144	2	-0.65	21.8971	15.7347	7.9271
145	2	-0.65	23.97795	17.43665	7.6886
146	2	-0.65	24.2618	15.44885	9.4433
147	1	1.3	23.18105	16.39915	8.7101
148	2	-0.65	29.2201	16.4845	9.73075
149	2	-0.65	31.688	16.4977	8.54975
150	1	1.3	30.45715	15.6407	9.0617
151	1	1.3	19.52155	19.0606	8.9911
152	2	-0.65	18.81105	18.06535	7.85915
153	1	1.3	32.1002	17.8362	7.66605
154	1	1.3	33.79475	19.76885	9.461
155	2	-0.65	32.5183	19.04035	8.6774
156	2	-0.65	18.43905	20.1517	9.44895
157	2	-0.65	34.9576	20.1111	8.39065
158	2	-0.65	14.91255	22.58255	8.35865
159	2	-0.65	15.36095	24.6015	9.8459
160	1	1.3	16.10815	23.34315	9.12155
161	2	-0.65	17.37555	24.0483	8.32465
162	2	-0.65	36.3893	23.73065	9.89005
163	2	-0.65	13.6079	27.2834	8.6198
164	2	-0.65	32.7387	27.23405	9.7803
165	1	1.3	33.8586	26.84775	8.61055
166	2	-0.65	35.07425	25.9715	9.1525
167	2	-0.65	14.70315	29.5755	8.40375
168	1	1.3	14.2115	28.3179	7.50205
169	2	-0.65	17.2946	29.56325	9.2789
170	2	-0.65	34.41325	28.3049	8.1111
171	2	-0.65	16.5367	31.2958	7.602
172	1	1.3	15.9575	30.40915	8.8445
173	2	-0.65	19.0284	32.36595	8.0176
174	2	-0.65	22.8426	31.89805	9.8618
175	2	-0.65	31.5419	30.69525	8.68285
176	1	1.3	30.37865	30.12745	9.6724
177	1	1.3	32.0973	31.6445	7.52085
178	2	-0.65	33.4447	32.4588	8.1362
179	2	-0.65	18.6151	34.56445	9.4602
180	1	1.3	19.70235	33.49095	9.0148
181	2	-0.65	20.89225	34.2089	8.2171
182	2	-0.65	25.71925	34.13155	9.5828
183	1	1.3	26.85895	33.82665	8.40715
184	2	-0.65	28.05785	33.0746	9.23315
185	2	-0.65	22.13105	36.5542	8.72215
186	1	1.3	21.5507	35.5644	7.5145
187	2	-0.65	27.39485	35.15235	7.6741
188	1	1.3	24.961	14.8158	10.7504
189	2	-0.65	23.792	14.11565	11.55945
190	2	-0.65	26.2299	13.76295	10.4626
191	1	1.3	19.61815	15.3131	12.1826
192	2	-0.65	20.81725	16.19645	11.56075
193	1	1.3	26.7387	16.7752	12.4137
194	2	-0.65	25.5042	15.9571	11.7322
195	2	-0.65	14.99485	19.42245	11.44455
196	2	-0.65	21.94015	18.57275	12.15485
197	2	-0.65	20.0155	18.3061	10.31945
198	1	1.3	21.30255	17.6165	10.95105
199	1	1.3	28.73915	17.9462	10.2898
200	2	-0.65	27.5133	17.76115	11.33145
201	1	1.3	30.50495	19.6843	12.17255
202	2	-0.65	30.03185	18.5917	11.1559
203	2	-0.65	34.3509	18.6788	10.52765
204	2	-0.65	17.44415	20.4189	11.83655
205	2	-0.65	16.7558	22.2858	10.1402
206	1	1.3	18.01095	21.3115	10.5647
207	1	1.3	32.10505	22.05035	10.7379
208	2	-0.65	30.94235	21.09435	11.4408
209	2	-0.65	33.3386	21.1302	10.26405
210	1	1.3	14.36485	24.94915	11.1419
211	2	-0.65	13.8209	23.4693	11.76855
212	2	-0.65	34.7758	24.9251	11.70655
213	2	-0.65	32.60615	23.26545	11.711
214	2	-0.65	15.0148	26.0066	12.2495
215	2	-0.65	31.73265	27.0416	12.2737
216	1	1.3	35.76405	25.1986	10.38235
217	2	-0.65	16.6649	27.83	11.1571
218	2	-0.65	19.15295	29.0788	11.11965
219	1	1.3	17.93905	28.36805	10.2704
220	1	1.3	32.29515	28.09235	11.11565
221	2	-0.65	30.9427	28.93085	10.64855
222	2	-0.65	33.44925	29.12905	11.46745
223	2	-0.65	15.6255	31.4146	10.10915
224	1	1.3	19.7417	30.03225	12.34455
225	1	1.3	21.69415	32.16335	10.9752
226	2	-0.65	21.0719	30.8048	11.64165
227	2	-0.65	27.4526	32.08975	11.76885
228	2	-0.65	29.5886	31.22775	10.54105
229	2	-0.65	35.30985	30.9823	11.86525
230	2	-0.65	22.23565	33.1194	12.1548
231	2	-0.65	20.33465	32.71905	10.29185
232	2	-0.65	24.75695	33.95075	12.05085
233	1	1.3	25.2774	34.9974	10.86605
234	2	-0.65	29.48855	33.771	11.4242
235	1	1.3	28.60795	32.5408	10.6979
236	1	1.3	30.5594	34.5739	12.33325
237	2	-0.65	24.12535	35.98545	10.39825
238	2	-0.65	26.5042	35.91925	11.4085
239	2	-0.65	20.20305	14.5595	13.5119
240	1	1.3	21.4192	14.01755	14.42945
241	2	-0.65	27.19085	13.9269	14.99425
242	1	1.3	28.38675	14.8445	14.36885
243	1	1.3	17.82045	17.41215	13.69185
244	2	-0.65	18.4423	16.3057	12.72905
245	2	-0.65	27.7772	15.66015	13.05385
246	2	-0.65	33.3674	17.21385	13.87855
247	2	-0.65	16.59355	18.2089	13.0049
248	1	1.3	16.1487	19.6989	12.5458
249	2	-0.65	18.9465	18.5735	14.02175
250	1	1.3	24.87825	17.92345	14.61595
251	2	-0.65	26.0915	17.72955	13.6014
252	2	-0.65	30.9276	17.8166	14.8906
253	1	1.3	32.3087	18.349	14.2496
254	2	-0.65	31.8418	19.25215	12.9551
255	1	1.3	14.39185	21.25365	14.59885
256	2	-0.65	15.6317	20.52675	13.7822
257	1	1.3	35.78855	21.61865	14.0906
258	2	-0.65	16.7377	24.36125	14.7433
259	1	1.3	17.9397	24.91005	13.8289
260	2	-0.65	33.41715	24.52145	14.01375
261	1	1.3	33.9225	23.82665	12.57725
262	2	-0.65	35.0222	22.614	12.99035
263	1	1.3	16.22415	27.09135	12.52745
264	2	-0.65	17.52685	26.30885	13.18705
265	2	-0.65	36.4102	27.33345	13.11485
266	1	1.3	14.34175	28.5711	14.5932
267	2	-0.65	15.6103	28.16215	13.5595
268	2	-0.65	34.7909	29.315	13.84235
269	1	1.3	35.7172	28.05875	14.37935
270	2	-0.65	16.75135	31.5518	14.6491
271	1	1.3	17.9702	32.17055	13.80285
272	2	-0.65	18.586	31.1316	12.68945
273	2	-0.65	31.2202	31.91415	14.72715
274	1	1.3	32.36065	32.42345	13.7607
275	2	-0.65	32.85655	31.02615	13.059
276	1	1.3	34.09885	30.15475	12.5709
277	2	-0.65	17.33065	33.44	12.98905
278	2	-0.65	19.26695	32.6134	14.6705
279	2	-0.65	22.9125	34.9964	13.86495
280	2	-0.65	24.00355	32.5103	14.0346
281	1	1.3	23.5105	33.6983	13.0307
282	2	-0.65	27.6731	34.9642	14.98625
283	2	-0.65	31.7295	33.5195	12.7184
284	2	-0.65	33.5994	33.0957	14.4797
285	2	-0.65	20.4618	35.10125	14.81455
286	1	1.3	21.70415	35.99995	14.3076
287	1	1.3	28.8618	35.97965	14.405
288	2	-0.65	30.0526	35.20105	13.7011
289	2	-0.65	23.8627	14.44845	17.07905
290	2	-0.65	17.2449	16.76515	15.06745
291	2	-0.65	22.3159	15.1902	15.04735
292	2	-0.65	24.43825	16.523	15.38025
293	1	1.3	23.33585	15.6557	16.17415
294	2	-0.65	22.5678	16.80385	17.14665
295	2	-0.65	28.9951	15.94455	15.4704
296	2	-0.65	31.433	15.6571	16.34625
297	1	1.3	30.25945	16.7805	15.9404
298	2	-0.65	18.5545	19.85695	16.28055
299	1	1.3	19.70095	19.4481	15.1623
300	1	1.3	21.4858	18.02385	17.2983
301	2	-0.65	20.93515	18.6614	15.9177
302	2	-0.65	29.85385	17.58345	17.2884
303	2	-0.65	32.83785	19.2471	15.4703
304	2	-0.65	35.1342	18.81135	16.30325
305	2	-0.65	15.0505	22.48315	15.4373
306	2	-0.65	17.4393	22.29545	16.4098
307	1	1.3	17.9237	20.97675	17.2771
308	2	-0.65	34.6058	21.2428	15.20955
309	1	1.3	34.09775	20.0419	16.17925
310	2	-0.65	15.7847	24.2705	17.2465
311	1	1.3	16.2946	23.34295	15.9675
312	1	1.3	32.16605	24.79005	15.0861
313	2	-0.65	36.28395	24.10005	16.66505
314	2	-0.65	13.80615	27.17745	15.3683
315	2	-0.65	13.2228	25.21205	16.9923
316	2	-0.65	34.7541	27.1231	15.2845
317	1	1.3	34.01435	26.7076	16.64915
318	2	-0.65	32.74365	25.75825	16.2697
319	2	-0.65	14.88935	29.77275	15.5852
320	2	-0.65	17.42565	29.80035	16.3918
321	1	1.3	17.87455	28.5244	17.3259
322	2	-0.65	33.36755	28.0118	17.3894
323	1	1.3	16.224	30.75455	15.87705
324	2	-0.65	15.88125	31.8766	17.049
325	1	1.3	21.6809	31.8924	17.3828
326	2	-0.65	29.1349	31.02975	16.32925
327	1	1.3	30.4185	30.6934	15.38885
328	2	-0.65	31.66225	30.03625	16.23145
329	1	1.3	19.89585	33.75735	15.643
330	2	-0.65	18.7672	34.2499	16.74595
331	2	-0.65	21.1932	33.08135	16.39005
332	1	1.3	26.889	34.19725	16.24365
333	2	-0.65	25.7568	33.1109	15.86165
334	2	-0.65	28.00225	33.3531	17.14945
335	2	-0.65	26.21	35.35305	17.1314
336	2	-0.65	26.2508	14.7519	18.3507
337	1	1.3	25.12395	13.741	17.783
338	2	-0.65	18.4852	16.61575	19.99845
339	1	1.3	19.5998	16.0342	18.9473
340	2	-0.65	18.84435	15.0604	17.9721
341	2	-0.65	20.9041	15.36975	19.7348
342	2	-0.65	20.27845	17.2639	18.15015
343	1	1.3	26.9054	15.70065	19.60645
344	2	-0.65	28.1762	16.61215	19.12025
345	1	1.3	16.1593	19.6968	19.4875
346	2	-0.65	15.0376	18.6147	19.21305
347	2	-0.65	29.15455	19.0872	19.4165
348	1	1.3	28.6109	17.97	18.29755
349	2	-0.65	16.65205	20.424	18.106
350	1	1.3	32.2592	21.15125	18.40215
351	2	-0.65	31.6279	20.03015	19.4891
352	2	-0.65	33.6302	20.5949	17.62
353	1	1.3	14.446	24.80795	18.01715
354	2	-0.65	13.79985	23.73385	19.03035
355	2	-0.65	32.6486	22.52755	19.257
356	1	1.3	35.9536	24.7069	18.1449
357	2	-0.65	35.0566	23.5833	18.9848
358	2	-0.65	14.97215	26.15865	18.82895
359	2	-0.65	17.4322	26.174	19.98725
360	1	1.3	16.1482	27.07395	19.50275
361	2	-0.65	34.98975	26.01415	17.7685
362	2	-0.65	16.63	28.06555	18.26385
363	2	-0.65	19.1082	29.09035	18.23585
364	1	1.3	32.235	29.15065	17.5115
365	1	1.3	19.7614	30.2557	19.2063
366	2	-0.65	20.39895	31.33035	18.2217
367	2	-0.65	22.85835	32.4971	18.2919
368	2	-0.65	29.7033	32.09805	18.7196
369	1	1.3	28.6439	31.9042	17.6002
370	2	-0.65	34.8833	31.7798	18.87655
371	1	1.3	33.9797	30.6019	19.6054
372	2	-0.65	32.74985	30.26405	18.6048
373	2	-0.65	17.75615	34.55585	19.15675
374	2	-0.65	22.03705	34.5176	19.85495
375	2	-0.65	24.47305	34.52325	18.8456
376	1	1.3	23.27185	33.60535	19.41595
377	2	-0.65	31.61545	33.94575	19.0708
378	1	1.3	30.381	33.1559	19.73405
379	2	-0.65	24.0124	36.84475	17.5317
380	2	-0.65	25.8472	36.6239	19.3767
381	1	1.3	25.0786	35.85695	18.1621
382	2	-0.65	20.1368	14.1231	22.1038
383	1	1.3	21.36695	14.70515	21.13015
384	2	-0.65	22.50405	13.5369	20.8959
385	2	-0.65	27.42815	14.6076	20.678
386	1	1.3	28.54275	14.01065	21.72195
387	2	-0.65	16.7749	17.1716	21.84945
388	2	-0.65	21.9917	15.83965	22.1646
389	2	-0.65	25.7372	16.59275	20.37825
390	2	-0.65	31.438	16.10435	22.4029
391	1	1.3	32.21065	17.3579	21.7071
392	2	-0.65	32.8892	16.95435	20.275
393	2	-0.65	17.4541	19.1283	20.25755
394	2	-0.65	19.25425	18.4609	21.87365
395	1	1.3	18.0548	17.79275	21.04255
396	2	-0.65	23.9738	17.5937	22.01015
397	2	-0.65	30.9153	18.36305	21.2641
398	1	1.3	30.331	19.60725	20.39385
399	2	-0.65	35.15665	19.8083	22.3823
400	1	1.3	14.46385	21.27595	21.64295
401	2	-0.65	15.51525	20.91765	20.3871
402	2	-0.65	34.5983	22.0431	21.13395
403	1	1.3	35.8011	20.95655	21.43
404	2	-0.65	16.7409	24.23595	21.7947
405	1	1.3	17.9275	24.83505	20.79305
406	2	-0.65	33.3405	24.39715	21.01185
407	1	1.3	33.9744	23.13815	20.15555
408	1	1.3	32.20955	25.5747	21.15455
409	2	-0.65	32.94885	26.6456	22.1144
410	2	-0.65	36.47065	27.28415	20.4612
411	1	1.3	14.54785	29.1705	21.17775
412	2	-0.65	15.5226	27.9664	20.75285
413	1	1.3	35.9625	28.64485	21.1822
414	2	-0.65	35.1002	29.4627	20.06685
415	2	-0.65	35.08005	28.1496	22.4466
416	2	-0.65	15.2189	30.1421	22.36325
417	1	1.3	18.16015	31.87115	21.49585
418	2	-0.65	18.6799	30.93765	20.2506
419	2	-0.65	26.26385	32.15155	21.93
420	2	-0.65	30.9665	32.3655	21.0699
421	1	1.3	32.233	31.83995	21.9797
422	2	-0.65	33.442	31.26005	21.03465
423	2	-0.65	16.977	32.85775	21.12255
424	2	-0.65	19.50105	32.72185	21.8731
425	2	-0.65	23.7791	32.58285	20.6631
426	2	-0.65	27.4966	34.57925	22.06
427	2	-0.65	29.28885	34.23685	20.0752
428	2	-0.65	20.36755	35.3048	21.80925
429	1	1.3	21.5542	35.75635	20.81425
430	2	-0.65	22.9009	36.18625	21.6798
431	2	-0.65	29.7989	35.9469	22.27215
432	1	1.3	28.71585	35.2477	21.2052
433	1	1.3	24.98415	14.22745	24.41795
434	2	-0.65	30.985	14.74875	24.69405
435	1	1.3	23.3348	16.4813	22.9096
436	2	-0.65	24.44065	15.3291	23.3517
437	2	-0.65	22.75565	17.3367	24.1902
438	2	-0.65	29.7298	17.01975	24.3913
439	2	-0.65	29.03225	15.05015	22.8331
440	1	1.3	30.32155	15.7322	23.557
441	1	1.3	19.708	19.35875	23.20185
442	2	-0.65	20.3104	18.4578	24.4201
443	1	1.3	28.51345	18.07865	24.73935
444	2	-0.65	34.5837	18.98155	24.96125
445	1	1.3	33.9888	19.3567	23.48425
446	2	-0.65	33.3109	18.0576	22.69905
447	2	-0.65	15.21065	22.2725	22.72225
448	1	1.3	18.08885	21.56335	24.85995
449	2	-0.65	18.56815	20.2656	23.9325
450	1	1.3	32.27745	21.7353	24.5786
451	2	-0.65	32.8727	20.5024	23.7048
452	1	1.3	16.3755	23.4276	23.1446
453	2	-0.65	15.692	24.39655	24.26065
454	2	-0.65	17.6809	22.74535	23.80775
455	2	-0.65	31.80245	22.9732	23.64485
456	1	1.3	35.91325	24.7354	24.5404
457	2	-0.65	36.4989	23.3875	23.82725
458	1	1.3	14.52355	25.4594	24.6779
459	2	-0.65	13.9091	26.38995	23.4742
460	2	-0.65	34.96325	25.6218	23.4732
461	1	1.3	34.1264	26.99595	23.14715
462	2	-0.65	16.8731	28.7553	24.0947
463	1	1.3	18.07985	27.95135	24.78875
464	1	1.3	30.4966	29.5272	23.4014
465	2	-0.65	31.13755	28.39135	24.38205
466	2	-0.65	33.55285	27.55545	24.6002
467	2	-0.65	15.818	31.23825	24.63005
468	1	1.3	16.373	30.2536	23.5018
469	2	-0.65	17.7011	30.90105	22.6791
470	2	-0.65	22.7766	31.72125	24.06075
471	1	1.3	28.83745	31.86935	24.8076
472	2	-0.65	31.6787	30.6067	22.9639
473	2	-0.65	18.5357	34.4413	23.6315
474	1	1.3	19.86395	34.0755	22.6812
475	1	1.3	21.57335	32.5418	24.7659
476	2	-0.65	21.05275	33.65955	23.70605
477	1	1.3	26.96325	33.3007	22.85535
478	2	-0.65	25.93325	33.74995	24.0553
479	2	-0.65	28.3021	32.71465	23.56355
480	2	-0.65	32.7477	33.1105	22.9855
481	2	-0.65	24.04275	35.6868	24.0261
482	1	1.3	23.5128	36.8565	23.07375
483	1	1.3	25.2785	35.00785	24.8114
484	2	-0.65	23.72675	13.8854	25.43175
485	2	-0.65	26.21075	14.942	25.1927
486	1	1.3	19.73085	16.17505	27.07935
487	2	-0.65	18.44475	15.7364	26.1144
488	2	-0.65	21.04735	16.82375	26.3436
489	2	-0.65	25.5183	16.43705	27.3754
490	2	-0.65	27.3407	17.3741	25.59805
491	1	1.3	26.7366	15.97775	26.32535
492	2	-0.65	28.1179	15.45825	27.06095
493	2	-0.65	32.65385	16.5752	27.32355
494	2	-0.65	17.3124	18.9	27.2423
495	1	1.3	16.0663	19.6862	26.4955
496	2	-0.65	15.46205	18.6976	25.31975
497	1	1.3	21.6269	17.93255	25.2537
498	2	-0.65	31.4088	18.9243	26.7095
499	2	-0.65	14.88865	20.2725	27.47495
500	2	-0.65	16.8908	20.98375	25.82835
501	2	-0.65	30.95955	21.2584	25.40685
502	1	1.3	30.2948	20.0484	26.28985
503	2	-0.65	33.52285	22.36145	25.52585
504	2	-0.65	35.0803	22.1737	27.46035
505	2	-0.65	13.7772	22.8296	27.2011
506	2	-0.65	13.2872	24.51555	25.15975
507	1	1.3	34.1831	23.32095	26.66245
508	2	-0.65	35.0297	24.4369	25.89535
509	1	1.3	16.22455	26.84485	26.96565
510	2	-0.65	15.03715	26.42435	25.9425
511	2	-0.65	17.52195	27.37445	26.17805
512	1	1.3	32.2758	28.1103	25.5116
513	2	-0.65	32.64595	29.3394	26.4841
514	2	-0.65	36.64925	27.5402	26.93875
515	1	1.3	19.71745	30.30005	25.979
516	2	-0.65	18.3988	31.03455	26.69775
517	2	-0.65	20.36785	31.44665	25.0487
518	2	-0.65	27.65355	31.78675	25.9266
519	2	-0.65	34.4351	31.22105	25.6744
520	1	1.3	33.86885	30.34375	27.02435
521	2	-0.65	17.2893	33.4473	27.3858
522	2	-0.65	22.02895	33.3554	26.11415
523	2	-0.65	24.56135	34.54855	26.25265
524	1	1.3	23.2953	33.9271	27.10335
525	2	-0.65	29.3453	34.5564	27.192
526	2	-0.65	31.8629	33.46945	27.45995
527	1	1.3	30.66725	33.9373	26.4111
528	2	-0.65	30.1369	32.6742	25.53305
529	2	-0.65	26.43625	36.14835	25.0227
530	2	-0.65	31.22955	35.1075	25.4418
531	2	-0.65	20.29485	14.80405	27.75345
532	1	1.3	21.42705	14.07625	28.69995
533	2	-0.65	22.7057	13.50365	27.9155
534	2	-0.65	27.6028	13.83805	29.1314
535	1	1.3	28.77625	14.3263	28.05605
536	2	-0.65	16.7109	17.33425	29.36305
537	2	-0.65	19.2105	17.21955	28.1704
538	2	-0.65	21.98005	15.26935	29.5798
539	1	1.3	24.90885	17.28655	28.6733
540	2	-0.65	24.2556	16.2701	29.78785
541	2	-0.65	29.9626	15.129	28.9261
542	1	1.3	30.46785	16.38345	29.81115
543	2	-0.65	18.5563	19.22375	29.64275
544	1	1.3	17.9481	18.16555	28.6366
545	2	-0.65	26.19615	18.0616	29.2855
546	1	1.3	32.07975	18.03135	27.8383
547	2	-0.65	31.02125	17.6233	28.94785
548	1	1.3	33.9267	19.44855	29.9723
549	2	-0.65	33.3107	18.87775	28.5866
550	1	1.3	14.35	21.62285	28.1618
551	2	-0.65	15.54015	22.26925	29.037
552	2	-0.65	34.52635	20.95425	29.7388
553	1	1.3	35.67645	21.79305	28.94305
554	2	-0.65	17.1688	24.03575	29.97345
555	1	1.3	17.8253	24.72085	28.6622
556	1	1.3	32.34375	24.5102	29.0045
557	2	-0.65	33.0149	24.0337	27.60535
558	2	-0.65	36.223	23.1456	29.6825
559	2	-0.65	13.96375	27.0245	29.77405
560	2	-0.65	16.63135	25.5864	27.92475
561	2	-0.65	33.43165	25.2622	29.94315
562	2	-0.65	35.0095	27.00035	28.9668
563	1	1.3	14.4726	28.38005	29.02385
564	2	-0.65	15.58965	28.03525	27.84385
565	1	1.3	35.84415	28.15965	28.21435
566	2	-0.65	35.08005	29.4569	27.6665
567	2	-0.65	16.69135	31.2363	28.685
568	2	-0.65	19.11775	32.4111	28.7534
569	1	1.3	17.8838	32.0392	27.8626
570	1	1.3	24.99035	32.3042	29.2217
571	1	1.3	32.3251	32.43165	28.60855
572	2	-0.65	31.0033	31.61635	29.10865
573	2	-0.65	33.4498	31.3849	28.1533
574	2	-0.65	20.82665	34.34365	29.87205
575	2	-0.65	23.88285	32.74695	28.1428
576	2	-0.65	32.8794	33.2724	29.9003
577	1	1.3	21.48275	35.59035	29.00955
578	2	-0.65	22.72485	35.01825	28.1465
579	2	-0.65	27.44415	35.387	28.99725
580	1	1.3	28.77675	35.79895	28.0975
581	1	1.3	24.90065	13.8223	32.1282
582	2	-0.65	23.5676	14.6344	31.6962
583	2	-0.65	25.57935	13.0678	30.7503
584	2	-0.65	22.4859	16.75785	31.84835
585	1	1.3	23.0549	15.754	30.6685
586	2	-0.65	29.17095	16.70585	30.76305
587	2	-0.65	31.6038	15.9852	30.89125
588	1	1.3	19.91545	19.8859	30.3334
589	1	1.3	21.3394	17.8485	32.3032
590	2	-0.65	20.88955	18.7193	31.03055
591	1	1.3	28.56245	17.84045	31.7741
592	2	-0.65	32.7597	19.6536	31.1585
593	2	-0.65	17.05795	21.79175	31.2893
594	1	1.3	18.28545	21.5801	32.3858
595	1	1.3	32.2557	20.6941	32.2883
596	1	1.3	14.453	24.5696	32.407
597	1	1.3	16.1424	22.8051	30.4067
598	2	-0.65	15.0568	23.335	31.4515
599	2	-0.65	13.17475	25.2866	31.65115
600	1	1.3	34.12785	26.6958	30.30025
601	2	-0.65	35.0765	26.33285	31.62545
602	2	-0.65	16.7802	28.0505	32.4934
603	2	-0.65	15.1646	29.46135	30.0518
604	1	1.3	18.009	28.7839	31.7894
605	2	-0.65	31.57095	29.96095	30.87865
606	1	1.3	32.20625	28.73245	31.7055
607	2	-0.65	33.36155	28.053	30.70795
608	2	-0.65	15.7291	32.0201	31.0174
609	1	1.3	16.2353	30.72185	30.1181
610	2	-0.65	17.51365	30.08705	30.89835
611	2	-0.65	20.22265	32.14745	31.23605
612	1	1.3	21.33325	31.89745	32.44065
613	2	-0.65	29.8686	31.78185	31.55645
614	1	1.3	30.2831	30.81895	30.31475
615	2	-0.65	18.3023	33.9158	30.765
616	1	1.3	19.60825	33.22995	30.12695
617	2	-0.65	24.1858	34.97	32.46435
618	1	1.3	26.9255	34.5954	30.33555
619	2	-0.65	25.6428	33.53155	30.10055
620	1	1.3	28.7157	32.7591	32.0892
621	2	-0.65	28.21255	33.8548	30.99695
622	2	-0.65	26.4056	35.70295	31.45125
623	1	1.3	25.1067	36.32285	32.2283
624	2	-0.65	21.02235	14.99	34.24615
625	2	-0.65	26.17415	14.76655	32.7657
626	2	-0.65	18.54695	16.22635	34.85895
627	1	1.3	19.6294	15.66625	33.70545
628	2	-0.65	20.07615	16.9108	32.79985
629	2	-0.65	25.5868	16.74605	34.52615
630	1	1.3	26.7899	16.0598	33.64465
631	2	-0.65	27.32025	17.2527	32.66335
632	2	-0.65	27.93605	15.4934	34.6725
633	2	-0.65	16.7823	18.33015	34.8427
634	1	1.3	16.3834	19.81065	34.2491
635	2	-0.65	15.12065	19.5534	33.22455
636	2	-0.65	29.78615	18.20555	32.8259
637	2	-0.65	31.5298	19.9768	33.57585
638	1	1.3	30.2505	19.06995	34.09875
639	2	-0.65	17.73855	20.5383	33.51145
640	2	-0.65	33.4451	21.7069	32.89325
641	2	-0.65	35.3016	22.29235	34.7058
642	2	-0.65	14.0153	23.89115	33.82775
643	2	-0.65	32.8732	23.6958	34.58565
644	1	1.3	34.09645	22.91985	33.76235
645	2	-0.65	34.7204	24.1861	32.9768
646	2	-0.65	17.1711	26.49955	34.6966
647	1	1.3	16.1024	26.95565	33.56545
648	2	-0.65	15.6371	25.66935	32.70295
649	2	-0.65	36.52645	26.1113	33.82965
650	1	1.3	35.9041	25.2635	32.58745
651	2	-0.65	14.7014	27.7355	34.09235
652	1	1.3	19.5807	29.9403	34.23155
653	2	-0.65	19.1122	29.0975	32.9237
654	2	-0.65	32.74895	29.4348	33.051
655	2	-0.65	35.11305	29.57705	34.4609
656	2	-0.65	16.8626	32.4602	34.8004
657	2	-0.65	20.57965	31.09125	33.70655
658	2	-0.65	27.4221	31.83485	32.51445
659	2	-0.65	33.357	31.58525	34.69165
660	1	1.3	33.925	30.4295	33.7468
661	2	-0.65	34.52565	31.3608	32.54125
662	2	-0.65	22.01515	33.29235	32.80565
663	2	-0.65	24.2537	33.27685	34.4061
664	1	1.3	23.2183	34.1386	33.5129
665	2	-0.65	29.07105	33.4562	33.5113
666	1	1.3	30.20395	34.4227	34.15115
667	2	-0.65	31.3993	33.32475	34.35095
668	2	-0.65	22.6151	35.1183	34.63045
669	2	-0.65	30.8508	35.47695	33.0253
670	1	1.3	21.649	14.31815	35.64875
671	2	-0.65	22.8084	13.25365	35.2271
672	2	-0.65	27.4622	13.4607	35.9557
673	1	1.3	28.67725	14.51125	35.6899
674	2	-0.65	17.41175	16.885	36.99695
675	2	-0.65	22.1833	15.4652	36.70875
676	2	-0.65	24.5574	16.58145	36.96745
677	2	-0.65	29.1419	15.37495	37.04215
678	2	-0.65	31.6941	16.549	37.0549
679	1	1.3	19.74475	19.818	36.84565
680	2	-0.65	19.21595	18.6026	35.9013
681	1	1.3	17.9502	17.52595	35.5562
682	1	1.3	25.09265	17.59105	35.79025
683	1	1.3	32.17655	17.81315	36.202
684	2	-0.65	30.81315	18.39465	35.43985
685	2	-0.65	32.6639	19.1305	37.01155
686	2	-0.65	33.3526	17.5386	35.08865
687	1	1.3	14.5277	21.345	36.38465
688	2	-0.65	15.80085	20.72255	35.52935
689	2	-0.65	34.9678	20.19545	36.2719
690	1	1.3	36.0658	21.03525	35.36745
691	2	-0.65	14.8329	22.7701	37.1706
692	2	-0.65	16.49135	24.71095	36.57445
693	1	1.3	17.7538	25.43775	35.8043
694	1	1.3	32.37245	25.003	35.33075
695	1	1.3	34.04145	26.80265	37.2948
696	2	-0.65	33.50155	25.64055	36.28255
697	1	1.3	14.1189	28.80675	35.1599
698	2	-0.65	15.35145	29.1473	36.2352
699	2	-0.65	34.4275	28.20245	36.59285
700	1	1.3	35.6612	29.0137	35.86845
701	2	-0.65	16.825	31.0728	37.19295
702	1	1.3	17.73325	31.6813	35.94775
703	2	-0.65	18.32305	30.39435	35.09165
704	1	1.3	24.9377	32.0442	35.2199
705	2	-0.65	26.13505	32.43245	36.18195
706	1	1.3	32.15265	32.3391	35.39715
707	1	1.3	30.22645	30.57795	37.4266
708	2	-0.65	31.1177	31.3745	36.24435
709	1	1.3	19.6376	34.0888	36.8223
710	2	-0.65	18.88985	32.63405	36.59415
711	1	1.3	26.7275	33.3788	37.4982
712	2	-0.65	27.9745	34.4123	37.0961
713	2	-0.65	32.9375	33.2561	36.6019
714	1	1.3	21.38405	35.9898	35.1589
715	2	-0.65	20.149	35.06655	35.64105
716	2	-0.65	24.2207	36.62485	37.4312
717	2	-0.65	27.3258	36.3964	35.27195
718	1	1.3	28.3983	35.7985	36.34075
719	2	-0.65	29.71295	35.23315	35.496
720	2	-0.65	23.77935	14.89915	38.78795
721	2	-0.65	26.3326	14.86615	39.66845
722	2	-0.65	25.51385	13.12295	37.90615
723	1	1.3	25.066	13.9125	39.22905
724	2	-0.65	30.887	14.6716	38.9506
725	2	-0.65	19.2415	15.2322	39.665
726	2	-0.65	22.6478	17.28835	38.67115
727	1	1.3	23.27765	16.0485	37.7785
728	2	-0.65	29.9142	16.99555	39.0685
729	1	1.3	30.4235	15.9054	37.96515
730	1	1.3	21.50585	18.39395	39.03835
731	2	-0.65	20.9333	19.17405	37.7582
732	2	-0.65	20.2341	17.69375	39.8184
733	1	1.3	28.7	18.0484	39.50095
734	2	-0.65	28.2607	18.80095	38.17625
735	2	-0.65	34.6185	19.24615	38.8422
736	2	-0.65	16.71355	20.5026	39.73265
737	1	1.3	17.907	21.26295	38.92955
738	2	-0.65	18.46565	20.331	37.6692
739	1	1.3	32.2054	21.9184	39.22055
740	2	-0.65	31.10865	20.7887	39.61515
741	2	-0.65	33.28305	21.4135	38.17735
742	1	1.3	33.94675	20.0217	37.58805
743	2	-0.65	17.2479	22.757	38.39435
744	2	-0.65	15.33205	24.59695	38.9846
745	1	1.3	16.0155	23.71565	37.808
746	2	-0.65	34.61055	24.44395	39.9885
747	1	1.3	35.89355	24.882	39.0546
748	2	-0.65	36.40315	23.64085	38.10955
749	1	1.3	14.21765	25.7541	39.28905
750	2	-0.65	13.6712	26.5072	37.98
751	2	-0.65	32.95815	27.3058	38.42965
752	2	-0.65	35.41325	26.11105	38.075
753	2	-0.65	16.8631	28.7297	38.3407
754	1	1.3	15.8465	29.7987	37.6216
755	1	1.3	17.9968	28.53245	39.49105
756	1	1.3	32.06395	28.55495	38.90795
757	2	-0.65	31.434	29.5309	37.7733
758	2	-0.65	33.18165	29.55795	39.66815
759	2	-0.65	14.65265	30.3168	38.6806
760	2	-0.65	18.67305	30.0047	39.83635
761	2	-0.65	20.2515	31.9959	39.4875
762	2	-0.65	22.78185	32.0074	38.35985
763	2	-0.65	27.16305	32.2954	38.61975
764	2	-0.65	29.7095	31.4286	38.67255
765	1	1.3	28.42155	31.91595	39.59065
766	2	-0.65	18.44965	34.86065	37.61365
767	2	-0.65	20.89335	33.8047	37.8114
768	1	1.3	21.5107	32.84015	38.9915
769	2	-0.65	25.51815	34.2915	38.11965
770	2	-0.65	23.88375	35.436	39.8489
771	1	1.3	24.9235	35.71575	38.6381
772	2	-0.65	26.0724	36.7202	39.2728
773	2	-0.65	22.8255	13.935	42.1451
774	2	-0.65	18.42955	16.7771	41.5972
775	1	1.3	19.7342	16.4166	40.6978
776	2	-0.65	21.0745	15.99275	41.5371
777	2	-0.65	25.68385	16.2265	41.91885
778	1	1.3	26.82985	15.9249	40.79935
779	2	-0.65	27.39775	17.30445	40.095
780	2	-0.65	28.14715	15.3292	41.6236
781	2	-0.65	32.747	16.85265	41.63095
782	2	-0.65	14.99225	18.845	40.88205
783	2	-0.65	17.3842	19.1813	42.04435
784	1	1.3	16.12835	19.931	41.1735
785	2	-0.65	29.28325	19.1139	40.63285
786	2	-0.65	31.78565	19.27705	41.607
787	2	-0.65	15.50115	21.17355	42.09655
788	1	1.3	30.5034	20.0879	40.98495
789	2	-0.65	13.67185	23.03165	41.3836
790	2	-0.65	33.52245	24.47635	42.4361
791	1	1.3	34.0117	23.5556	41.1965
792	2	-0.65	32.8316	22.62065	40.58475
793	2	-0.65	35.30505	22.78765	41.834
794	2	-0.65	14.9075	26.7522	40.37085
795	2	-0.65	16.7002	25.4597	41.80175
796	1	1.3	16.11945	26.94685	41.40905
797	2	-0.65	36.6144	27.144	42.0479
798	2	-0.65	17.32735	27.84805	40.8004
799	2	-0.65	34.48785	28.9361	41.90955