LAMMPS (15 Apr 2020)
OMP_NUM_THREADS environment is not set. Defaulting to 1 thread. (../comm.cpp:94)
  using 1 OpenMP thread(s) per MPI task
# Input file for uniaxial tensile loading

# ------------------------ INITIALIZATION ----------------------------
units 		real
dimension	3
boundary	p	p	p
atom_style	charge
#variable latparam equal 4.05

# ----------------------- ATOM DEFINITION ----------------------------
read_data	SiNW_SiO2_22A.data
  orthogonal box = (0 0 0) to (50 50 50)
  1 by 1 by 1 MPI processor grid
  reading atoms ...
  4864 atoms
  read_data CPU = 0.0498688 secs
# ------------------------ FORCE FIELDS ------------------------------
pair_style      reax/c lmp_control
pair_coeff      * * ffield_Li_Si_Al_O Si O
WARNING: Changed valency_val to valency_boc for X (../reaxc_ffield.cpp:315)

# ------------------------- SETTINGS ---------------------------------
compute peratom all pe/atom
compute csym all centro/atom 12
compute reax all pair reax/c

######################################
# EQUILIBRATION
reset_timestep	0
timestep 0.01
velocity all create 300 12345 mom yes rot no
fix 1 all npt temp 300 300 1 iso 0 0 1 drag 1
fix 3 all qeq/reax 1 0.0 10.0 1e-6 reax/c
# Set thermo output
thermo 200
thermo_style custom step lx ly lz press pxx pyy pzz pe temp

# Run for at least 10 picosecond (assuming 1 fs timestep)
run 10000
Neighbor list info ...
  update every 1 steps, delay 10 steps, check yes
  max neighbors/atom: 2000, page size: 100000
  master list distance cutoff = 12
  ghost atom cutoff = 12
  binsize = 6, bins = 9 9 9
  3 neighbor lists, perpetual/occasional/extra = 2 1 0
  (1) pair reax/c, perpetual
      attributes: half, newton off, ghost
      pair build: half/bin/newtoff/ghost
      stencil: half/ghost/bin/3d/newtoff
      bin: standard
  (2) compute centro/atom, occasional
      attributes: full, newton on
      pair build: full/bin/atomonly
      stencil: full/bin/3d
      bin: standard
  (3) fix qeq/reax, perpetual, copy from (1)
      attributes: half, newton off, ghost
      pair build: copy
      stencil: none
      bin: none
Per MPI rank memory allocation (min/avg/max) = 236.4 | 236.4 | 236.4 Mbytes
Step Lx Ly Lz Press Pxx Pyy Pzz PotEng Temp 
       0           50           50           50   -3521.7207   -9921.6768   -2332.9277    1689.4424    -687011.7          300 
     200    49.739612    49.739612    49.739612   -294.82287    -6101.916    1525.4256    3692.0218   -690560.45    485.26513 
     400    49.654442    49.654442    49.654442    146.49892   -5920.6587    3330.0894     3030.066   -695412.96    597.63404 
     600    49.599291    49.599291    49.599291   -232.26006   -7372.4435    3441.7293     3233.934   -698527.12     561.3307 
     800    49.539265    49.539265    49.539265    -32.50429   -5974.3212    4692.0507    1184.7576   -700925.59    516.87578 
    1000    49.515953    49.515953    49.515953   -38.747021   -5531.4434     3347.914    2067.2884   -702721.11    472.70694 
    1200    49.473942    49.473942    49.473942    2.6776711    -5711.598    4225.1376    1494.4934   -704053.33    432.45589 
    1400    49.434595    49.434595    49.434595   -126.02293   -6010.4574    5040.7907    591.59794   -705280.82    412.28532 
    1600    49.389828    49.389828    49.389828   -66.954634   -5075.0052     2584.734    2289.4072   -706362.77    395.50168 
    1800    49.347602    49.347602    49.347602    -62.71635   -4442.4807    2013.0703    2241.2613   -707194.19    377.16282 
    2000    49.308239    49.308239    49.308239   -39.713308   -3533.5564    3572.9164   -158.49993    -708008.8    367.20551 
    2200     49.28329     49.28329     49.28329    176.38774    -4476.143    3318.4124    1686.8938   -708606.43    352.04975 
    2400    49.275278    49.275278    49.275278   -43.885756   -5073.0414    5751.5158   -810.13164   -709176.66    344.21627 
    2600     49.26233     49.26233     49.26233     148.6053   -4299.5065    3177.6401    1567.6823   -709698.76    338.38205 
    2800    49.245706    49.245706    49.245706    139.13679   -3908.5819    2948.2533    1377.7389   -710242.23    336.51257 
    3000    49.237843    49.237843    49.237843   -40.699068   -2544.5785    2937.5193     -515.038   -710731.83     334.0472 
    3200    49.224889    49.224889    49.224889    217.22667   -3196.1152    580.75705    3267.0381   -711296.67    336.71226 
    3400      49.2161      49.2161      49.2161   -117.19679   -3092.3197    2135.9048    604.82454   -711653.61    326.97139 
    3600    49.207612    49.207612    49.207612    113.30434   -3155.0897    3101.9599    393.04281    -711999.8    322.49095 
    3800    49.175255    49.175255    49.175255    32.712461   -2825.1872    4276.1778   -1352.8532   -712494.73    327.03879 
    4000    49.153405    49.153405    49.153405    229.45645   -1225.1551    2072.1837   -158.65928   -712866.14    324.76071 
    4200    49.139714    49.139714    49.139714    197.67142   -1519.8169   -991.98196    3104.8131   -713180.28    319.91047 
    4400    49.122394    49.122394    49.122394   -220.93743   -2078.3353    2228.0962   -812.57329    -713544.4    320.02906 
    4600    49.106741    49.106741    49.106741    53.445314   -2426.9291    738.97605     1848.289    -713821.5    315.72229 
    4800    49.108648    49.108648    49.108648   -381.73999   -2870.3042    1837.2467   -112.16249   -714040.78    311.90089 
    5000     49.11935     49.11935     49.11935   -48.216386   -3586.8403    2600.0078    842.18331   -714124.78    303.60646 
    5200    49.119157    49.119157    49.119157   -132.53193   -2083.5994    2508.2794   -822.27577   -714294.27    306.13561 
    5400    49.128271    49.128271    49.128271   -121.26248    -2870.597    3771.8741   -1265.0645   -714411.21    304.16453 
    5600    49.140629    49.140629    49.140629   -147.41916   -2474.4613   -2414.5438    4446.7476   -714555.94     307.1538 
    5800    49.140443    49.140443    49.140443   -113.59313   -1273.6136    2692.5381   -1759.7039   -714704.38    304.29829 
    6000    49.138497    49.138497    49.138497    219.22945   -737.12659    1646.6698   -251.85487   -714913.13    307.97901 
    6200    49.144101    49.144101    49.144101   -21.634681   -1429.0091    1492.5255   -128.42041      -715112    307.96839 
    6400    49.155657    49.155657    49.155657    14.527759   -890.34375    2809.5237   -1875.5966   -715283.79    306.89433 
    6600    49.156274    49.156274    49.156274   -27.938008    274.91856    2324.6706   -2683.4032   -715478.64    307.49952 
    6800    49.170991    49.170991    49.170991    280.35518   -1164.4633    1865.2434    140.28544   -715624.43    305.46323 
    7000    49.193875    49.193875    49.193875    180.16701    258.00246   -238.02663     520.5252   -715638.69    300.22264 
    7200    49.188256    49.188256    49.188256    78.120409   -15.268316    2593.7952   -2344.1656   -715771.41    301.06802 
    7400      49.1786      49.1786      49.1786    67.115784    -324.5478     477.5656    48.329559   -715859.24    304.52139 
    7600    49.184492    49.184492    49.184492    104.99168    94.390733     1010.376   -789.79171   -715912.17    300.09341 
    7800    49.189299    49.189299    49.189299   -277.41809   -391.94018    1179.8582   -1620.1723   -715955.95    300.45833 
    8000    49.195789    49.195789    49.195789   -22.562602   -702.03814   -1049.5904    1683.9408   -716044.77    303.13013 
    8200    49.196281    49.196281    49.196281    -232.7128   -332.42394    3404.8388   -3770.5533    -716170.6    305.95961 
    8400    49.188691    49.188691    49.188691   -179.94984   -1296.2422    1578.6511   -822.25847   -716308.24    304.74646 
    8600     49.18778     49.18778     49.18778    289.55156   -544.98527    2887.0873   -1473.4474   -716394.69    301.78013 
    8800    49.189795    49.189795    49.189795    84.267015    646.31154    375.40163   -768.91212   -716517.36    301.97406 
    9000    49.195124    49.195124    49.195124   -84.781774    6.7235045    1103.7114   -1364.7802   -716644.14    302.68942 
    9200    49.198423    49.198423    49.198423   -75.812311    2.9370101    2020.6987   -2251.0727   -716745.81    302.07379 
    9400    49.216024    49.216024    49.216024    109.18286   -317.30413    2706.2347    -2061.382   -716728.81    298.40777 
    9600    49.233454    49.233454    49.233454    153.77164    962.40342   -145.74908   -355.33941   -716873.14    304.27636 
    9800    49.256743    49.256743    49.256743   -143.45412   -106.26722    2017.7222   -2341.8173    -716888.8    298.73291 
   10000    49.265039    49.265039    49.265039    23.697093   -1153.2455    2577.9566   -1353.6198   -716918.64    301.35863 
Loop time of 4428.47 on 1 procs for 10000 steps with 4864 atoms

Performance: 0.002 ns/day, 12301.315 hours/ns, 2.258 timesteps/s
97.0% CPU use with 1 MPI tasks x 1 OpenMP threads

MPI task timing breakdown:
Section |  min time  |  avg time  |  max time  |%varavg| %total
---------------------------------------------------------------
Pair    | 3401.5     | 3401.5     | 3401.5     |   0.0 | 76.81
Neigh   | 0.23238    | 0.23238    | 0.23238    |   0.0 |  0.01
Comm    | 0.58799    | 0.58799    | 0.58799    |   0.0 |  0.01
Output  | 0.41753    | 0.41753    | 0.41753    |   0.0 |  0.01
Modify  | 1025.4     | 1025.4     | 1025.4     |   0.0 | 23.16
Other   |            | 0.3102     |            |       |  0.01

Nlocal:    4864 ave 4864 max 4864 min
Histogram: 1 0 0 0 0 0 0 0 0 0
Nghost:    7162 ave 7162 max 7162 min
Histogram: 1 0 0 0 0 0 0 0 0 0
Neighs:    1.01796e+06 ave 1.01796e+06 max 1.01796e+06 min
Histogram: 1 0 0 0 0 0 0 0 0 0
FullNghs:  0 ave 0 max 0 min
Histogram: 1 0 0 0 0 0 0 0 0 0

Total # of neighbors = 1017965
Ave neighs/atom = 209.286
Neighbor list builds = 4
Dangerous builds = 0
unfix 1

# Store final cell length for strain calculations
variable tmp equal "lz"
variable L0 equal ${tmp}
variable L0 equal 49.265038687494
print "Initial Length, L0: ${L0}"
Initial Length, L0: 49.265038687494

######################################
# DEFORMATION
reset_timestep	0

fix		1 all npt temp 300 300 1 x 0 0 1 y 0 0 1 drag 1
variable srate equal 1.0e10
variable srate1 equal "v_srate / 1.0e12"
fix		2 all deform 1 z erate ${srate1} remap x units box
fix		2 all deform 1 z erate 0.01 remap x units box

# Output strain and stress info to file
# for units metal, pressure is in [bars] = 100 [kPa] = 1/10000 [GPa]
# p2, p3, p4 are in GPa
variable strain equal "(lz - v_L0)/v_L0"
variable p1 equal "v_strain"
variable p2 equal "-pxx/10000"
variable p3 equal "-pyy/10000"
variable p4 equal "-pzz/10000"
fix def1 all print 100 "${p1} ${p2} ${p3} ${p4}" file SiNT_100.def1.txt screen no

# Use cfg for AtomEye
dump 		1 all custom 100 dump.tensile id type x y z c_csym c_peratom fx fy fz


# Display thermo
thermo 	200
thermo_style	custom step v_strain temp v_p2 v_p3 v_p4 ke pe press

run		15000
Per MPI rank memory allocation (min/avg/max) = 246.4 | 246.4 | 246.4 Mbytes
Step v_strain Temp v_p2 v_p3 v_p4 KinEng PotEng Press 
       0            0    301.35863   0.11527166  -0.25784772   0.13530901    4368.3981   -716918.63    24.223508 
     200         0.02    317.82396 -0.029917905  0.010110857    6.0151656    4607.0742   -715800.65   -19984.528 
     400         0.04     343.8095 -0.0080699134 -0.0083204594    6.3021759    4983.7523   -714407.64   -20952.618 
     600         0.06    337.47771 -0.013762894  0.020993334    7.0956843    4891.9686   -712566.89   -23676.383 
     800         0.08    323.23522  0.016028258 0.0048796594    8.2720945    4685.5141   -710140.96   -27643.341 
    1000          0.1    316.97973 0.0061931042   0.00610876    9.6766011    4594.8364   -707270.82   -32296.343 
    1200         0.12    323.43432 8.5545601e-05  0.004076809    11.249735    4688.4001   -704090.46    -37512.99 
    1400         0.14    336.60517 0.0012652993 -0.00025802262    12.749897    4879.3206   -700602.63   -42503.015 
    1600         0.16    349.82608 0.0011067979 0.00075753098     14.08887    5070.9667   -696824.38   -46969.113 
    1800         0.18    363.27024 0.0029920076 -0.00064708083    15.362019    5265.8489   -692795.25   -51214.547 
    2000          0.2    371.06955 -0.0022339756 -0.00022551989    16.467576    5378.9052   -688455.06   -54883.722 
    2200         0.22     378.7574 -0.002783437 -0.0022827264    17.787148    5490.3458    -683859.8   -59273.606 
    2400         0.24    385.85988 -0.0006028633 -0.0010988251    19.272209    5593.3011   -678947.87   -64235.024 
    2600         0.26    395.85723 -0.002449676 -0.002415125    20.871517    5738.2194   -673776.41   -69555.506 
    2800         0.28    404.12928 0.0016388299 0.0019630808    22.287438    5858.1284   -668326.59   -74303.466 
    3000          0.3    413.25339 0.0014593433 0.0012389919    23.491833    5990.3886   -662707.11   -78315.106 
    3200         0.32    424.74065 0.0006341725 0.00065509446    24.486915    6156.9042   -657046.96   -81627.348 
    3400         0.34     433.7734 0.00073431271 0.00080711618    25.230107    6287.8401   -651358.31   -84105.495 
    3600         0.36    447.47984 0.0010271583  0.001542111     25.80373    6486.5242   -645806.16   -86020.997 
    3800         0.38    456.45246 0.00037378688 0.00071522396     26.19791    6616.5885   -640353.64   -87329.998 
    4000          0.4    462.57961 0.00075396299 0.00057223216    26.529589    6705.4057   -634989.94   -88436.383 
    4200         0.42    469.92947 0.0018044301 0.0016063615    26.841151    6811.9468   -629793.22   -89481.873 
    4400         0.44    471.29981 0.00041811112 0.00069045903    27.156629    6831.8109   -624621.04   -90525.793 
    4600         0.46    476.65093 0.0010918046 0.0012689545     27.55625     6909.379   -619622.66   -91862.034 
    4800         0.48    475.23854 0.00084171484 0.00058817564    27.942304    6888.9054   -614612.02   -93145.778 
    5000          0.5    478.82771 0.0010246499 0.00074844183    28.402151    6940.9329   -609729.22   -94679.746 
    5200         0.52    482.70093 0.0010675674 0.0012008543    29.004302    6997.0779   -604908.28   -96688.567 
    5400         0.54    492.13093 0.0011650793 0.0009572313    29.730295    7133.7721   -600247.14   -99108.059 
    5600         0.56    496.05029 0.0010999036 0.00078994863    30.242306    7190.5859   -595608.45   -100813.99 
    5800         0.58    502.25435 0.00085722988 0.00038376474    30.969882    7280.5179   -591081.02   -103237.08 
    6000          0.6    505.66756 0.0010632561 0.00093155363    31.685398    7329.9947   -586545.83   -105624.64 
    6200         0.62    510.31433 0.0011753893 0.00083110223    32.512397    7397.3529   -582057.28   -108381.34 
    6400         0.64    511.48275 0.0017811612  0.001564244    33.264107    7414.2899   -577543.94   -110891.51 
    6600         0.66    508.26397 0.0016456917 0.00058118836      34.2048    7367.6315    -572926.2   -114023.42 
    6800         0.68     509.4373 0.0010805297 0.0008701146    35.407904    7384.6397    -568260.9   -118032.85 
    7000          0.7     515.3783 0.0013434997 0.00025813854    36.633942    7470.7585   -563617.06   -122118.48 
    7200         0.72    520.37936 0.0002496593 0.00063994394    37.774501    7543.2523   -558940.01   -125917.97 
    7400         0.74    525.59792 0.0018848112 0.00075837714    39.059662    7618.8989   -554216.97   -130207.68 
    7600         0.76    536.47874 0.00049196957 0.00057760022    40.480556    7776.6237      -549557   -134938.75 
    7800         0.78    544.17811 0.0013792127 0.00098912017    41.721399    7888.2314   -544853.83   -139079.23 
    8000          0.8    549.32727 0.0010090701 0.0010717897    43.032734    7962.8719   -540130.87   -143449.38 
    8200         0.82    555.28113 0.00093343459 0.00066475937    44.504512    8049.1772   -535349.86    -148353.7 
    8400         0.84    565.30487 0.00087544962 0.00055521895     45.70462     8194.478      -530630    -152353.5 
    8600         0.86    575.54258 0.00018642815 -0.0005692307    46.980013    8342.8806   -525951.13   -156598.77 
    8800         0.88    584.32962 0.00030733244 0.0005563503    48.023035    8470.2547   -521319.47   -160079.66 
    9000          0.9    592.47215 -3.7701362e-06 0.00012552742    48.891023    8588.2862   -516737.97   -162970.48 
    9200         0.92    608.29813 0.00081629798 0.0005894011     49.84843    8817.6946   -512394.66   -166166.12 
    9400         0.94    623.98185 0.00036093765 0.0012872542     50.54214    9045.0408   -508267.92    -168479.3 
    9600         0.96    637.14406 0.00064779295 -0.00061336548    50.581685     9235.836   -504342.54   -168605.73 
    9800         0.98    651.04558 0.00062974192 -0.00015544044    50.535731    9437.3479   -500724.05   -168454.02 
   10000            1    677.87713 -0.00038886831 0.0004819525    50.144016    9826.2895   -497753.61   -167147.03 
   10200         1.02    700.97414 0.00049209857 0.00046337981    49.702882    10161.096   -495291.06   -165679.46 
   10400         1.04    715.70236 -0.00035855011 0.0004226629     48.84651    10374.592   -493182.47   -162821.91 
   10600         1.06    721.44851 0.00030420155 0.0012189601    48.207347    10457.886   -491325.33   -160696.23 
   10800         1.08    734.90387 -0.00028491792 0.0006723511    47.495262    10652.931   -489889.12   -158318.83 
   11000          1.1    748.69662 0.00072866485 0.00033086212    46.758162    10852.866   -488873.39   -155864.07 
   11200         1.12    755.26711  0.001132525 0.00049420233    45.827884     10948.11   -488131.54   -152765.03 
   11400         1.14    760.93189 -0.00012624347 0.0011542377    45.001512    11030.225   -487664.64   -150008.47 
   11600         1.16    762.39982 -5.6153393e-05 0.0007943933    44.474093    11051.503   -487370.03   -148249.44 
   11800         1.18    760.35647 0.00065660493  0.000718058    43.651042    11021.884   -487163.44   -145508.06 
   12000          1.2    759.15899 -4.5407114e-05 0.00056733837    42.808478    11004.525   -487109.74   -142696.67 
   12200         1.22    763.90218 0.00063339815 0.0011671242     42.04763    11073.281   -487336.34   -140164.77 
   12400         1.24    763.90574 0.00041024889 0.00039006288    41.179672    11073.333   -487707.44   -137268.24 
   12600         1.26    762.62669 0.00020420722 0.00039055595    40.235208    11054.792    -488257.3   -134119.34 
   12800         1.28    754.12921 0.00096226235 0.0009476977    39.693712    10931.615   -488766.86   -132318.74 
   13000          1.3    749.75616 0.00081507905 0.00055739316    38.937967    10868.225    -489351.4    -129797.8 
   13200         1.32    743.19792 0.00019697934 0.00021193644    38.383841    10773.159   -489943.29    -127947.5 
   13400         1.34    740.09667 0.00093242652 0.0010492649    37.753946    10728.204   -490616.11   -125853.09 
   13600         1.36    741.06727 0.00046683237 0.00040926689    36.985063    10742.273   -491479.53   -123286.46 
   13800         1.38    741.58346 -0.00048703984 -0.00028646257    36.266805    10749.756   -492495.57   -120886.77 
   14000          1.4    735.42894 0.00059722843 0.0010886491    35.607568    10660.542    -493514.4   -118697.51 
   14200         1.42    733.63735 0.00039423469 0.00073807485    34.966144    10634.572   -494624.72   -116557.59 
   14400         1.44    740.87315 0.00035108126 0.0001492542    34.467617     10739.46   -496026.85   -114893.72 
   14600         1.46    735.24433 0.00037327836 0.00014704337    34.017202    10657.866   -497398.02   -113392.41 
   14800         1.48    720.26716 0.00046960535 -0.00018880382    33.382227    10440.762   -498528.54   -111275.03 
   15000          1.5    713.53853 0.00033773576 0.00029866112    32.751572    10343.226   -499697.11   -109174.03 
Loop time of 6782.11 on 1 procs for 15000 steps with 4864 atoms

Performance: 0.002 ns/day, 12559.458 hours/ns, 2.212 timesteps/s
97.4% CPU use with 1 MPI tasks x 1 OpenMP threads

MPI task timing breakdown:
Section |  min time  |  avg time  |  max time  |%varavg| %total
---------------------------------------------------------------
Pair    | 5439.9     | 5439.9     | 5439.9     |   0.0 | 80.21
Neigh   | 4.4432     | 4.4432     | 4.4432     |   0.0 |  0.07
Comm    | 1.2727     | 1.2727     | 1.2727     |   0.0 |  0.02
Output  | 11.632     | 11.632     | 11.632     |   0.0 |  0.17
Modify  | 1324.4     | 1324.4     | 1324.4     |   0.0 | 19.53
Other   |            | 0.4897     |            |       |  0.01

Nlocal:    4864 ave 4864 max 4864 min
Histogram: 1 0 0 0 0 0 0 0 0 0
Nghost:    12197 ave 12197 max 12197 min
Histogram: 1 0 0 0 0 0 0 0 0 0
Neighs:    973623 ave 973623 max 973623 min
Histogram: 1 0 0 0 0 0 0 0 0 0
FullNghs:  1.75196e+06 ave 1.75196e+06 max 1.75196e+06 min
Histogram: 1 0 0 0 0 0 0 0 0 0

Total # of neighbors = 1751962
Ave neighs/atom = 360.19
Neighbor list builds = 80
Dangerous builds = 0

######################################
# SIMULATION DONE
print "All done"
All done

Please see the log.cite file for references relevant to this simulation

Total wall time: 3:06:52
