LAMMPS data file for 20 A silica coating on SiNW, created by AMAL M S, on 28-NOV-2020

4864 atoms
2 atom types


0.00 50.00  xlo xhi
0.00 50.00  ylo yhi
0.00 50.00  zlo zhi

Masses 

1 28.0855
2 15.9994

Atoms

1	2	-0.65	19.2817	4.145525	0.2998135
2	1	1.3	25.1307	3.87972	0.454922
3	2	-0.65	25.84805	4.86081	1.48583
4	1	1.3	14.39555	6.82835	0.566145
5	1	1.3	19.7817	5.53955	1.024455
6	2	-0.65	18.4689	5.942	1.899285
7	2	-0.65	21.0488	5.0246	1.985445
8	2	-0.65	20.2603	6.7242	0.04777835
9	1	1.3	27.00455	5.85965	2.01656
10	2	-0.65	27.62855	6.71465	0.779465
11	1	1.3	33.97005	5.4726	1.7812
12	2	-0.65	34.469	6.37145	0.4514245
13	2	-0.65	10.23195	9.62805	1.31944
14	2	-0.65	14.86495	8.06735	1.559445
15	1	1.3	16.0326	9.14405	1.845595
16	2	-0.65	16.6257	9.98785	0.61037
17	2	-0.65	17.3599	8.342	2.39966
18	2	-0.65	22.02495	8.38945	1.14594
19	1	1.3	23.3246	8.8905	1.939695
20	2	-0.65	24.62285	9.3597	1.01139
21	2	-0.65	29.22565	9.55025	2.286045
22	2	-0.65	29.9504	7.7056	0.463201
23	2	-0.65	31.74875	8.6895	2.3384
24	1	1.3	30.4545	8.9971	1.354835
25	2	-0.65	36.8867	7.6444	0.89367
26	2	-0.65	36.2531	9.77515	2.345215
27	1	1.3	37.48285	8.9656	1.704385
28	2	-0.65	38.16885	9.99045	0.66706
29	2	-0.65	12.17105	11.3981	0.373087
30	1	1.3	10.91415	10.41445	0.092314
31	2	-0.65	13.90485	12.2156	2.03115
32	2	-0.65	19.08745	10.99905	0.87477
33	1	1.3	19.7264	11.98835	1.98567
34	1	1.3	26.7796	12.4891	1.01999
35	2	-0.65	28.10405	11.90155	1.832585
36	2	-0.65	31.0501	10.154	0.349246
37	2	-0.65	32.93505	11.83075	1.26772
38	2	-0.65	35.30435	12.16925	2.44565
39	1	1.3	39.4883	10.9127	0.268534
40	2	-0.65	39.94865	11.95685	1.50833
41	2	-0.65	6.6709	13.02055	1.935505
42	1	1.3	7.16045	14.1155	0.816905
43	2	-0.65	8.488	13.4225	0.0581625
44	2	-0.65	11.51935	13.6229	1.717655
45	1	1.3	12.78505	12.81115	1.0405
46	2	-0.65	13.46765	13.83595	0.004633655
47	2	-0.65	18.59375	13.1199	2.38098
48	2	-0.65	20.90295	12.8801	1.335845
49	2	-0.65	22.7119	14.64445	0.2384945
50	2	-0.65	25.55485	12.8341	2.083435
51	2	-0.65	27.322	13.8126	0.301227
52	2	-0.65	29.7297	14.94455	0.602565
53	1	1.3	33.94965	12.9143	1.88927
54	2	-0.65	34.4631	13.88915	0.649935
55	2	-0.65	37.07845	14.8168	0.62908
56	2	-0.65	42.41545	13.04855	1.65782
57	1	1.3	42.9468	14.19575	0.66043
58	2	-0.65	7.57225	15.4448	1.614595
59	1	1.3	8.80165	16.4248	1.99038
60	2	-0.65	9.37875	17.1717	0.60732
61	2	-0.65	15.0112	15.68315	1.10861
62	1	1.3	16.17535	16.29465	2.05649
63	2	-0.65	17.1177	17.2381	1.113375
64	2	-0.65	22.04475	16.57785	1.94494
65	1	1.3	23.29995	15.7733	1.25013
66	2	-0.65	24.0402	16.82235	0.2786685
67	2	-0.65	24.35735	15.23385	2.425195
68	1	1.3	30.3195	16.1078	1.58528
69	2	-0.65	31.00725	17.36935	0.75792
70	2	-0.65	31.55845	15.3648	2.3055
71	1	1.3	37.62125	15.9695	1.688345
72	2	-0.65	38.14965	17.0925	0.668475
73	1	1.3	44.74205	16.41255	2.00065
74	2	-0.65	43.45385	15.52635	1.475545
75	2	-0.65	45.32425	17.2619	0.82826
76	2	-0.65	4.884195	18.3617	0.573765
77	1	1.3	5.40675	19.7769	1.2489
78	2	-0.65	6.70965	19.4088	2.196605
79	2	-0.65	11.859	18.09735	1.210685
80	1	1.3	10.7635	17.8532	0.0099947
81	1	1.3	12.6116	19.1239	2.25311
82	2	-0.65	13.86555	19.8757	1.52608
83	1	1.3	19.5781	19.71885	0.79531
84	2	-0.65	21.0152	19.06165	1.41444
85	2	-0.65	33.40715	18.4587	0.48267
86	1	1.3	34.01045	19.3785	1.650765
87	2	-0.65	40.5853	18.0894	0.799835
88	1	1.3	41.19135	19.1745	1.890735
89	2	-0.65	4.22729	20.4919	2.045405
90	2	-0.65	6.04185	20.83335	0.096987
91	1	1.3	14.35345	21.0271	0.539775
92	2	-0.65	14.8511	22.32355	1.53507
93	2	-0.65	17.4115	22.4575	2.18714
94	2	-0.65	18.5833	20.1011	1.999335
95	2	-0.65	32.86235	20.3759	2.37043
96	2	-0.65	35.29715	20.15555	0.954
97	1	1.3	35.9	21.51795	0.239988
98	2	-0.65	40.0368	20.2597	2.277505
99	2	-0.65	42.3991	20.11065	1.343005
100	1	1.3	42.828	21.47735	0.507575
101	2	-0.65	7.69425	22.75145	1.10664
102	1	1.3	8.8951	23.29355	2.032
103	2	-0.65	10.0735	24.0205	1.20862
104	1	1.3	16.07825	23.35085	1.75491
105	2	-0.65	16.55155	24.19275	0.4484355
106	1	1.3	32.253	24.6141	0.3181365
107	2	-0.65	36.30185	22.7731	1.21237
108	1	1.3	37.51165	23.7273	1.895395
109	2	-0.65	38.0289	24.65355	0.670385
110	2	-0.65	38.77005	22.7759	2.34892
111	2	-0.65	43.21845	22.70665	1.55337
112	1	1.3	44.4891	23.25025	2.485065
113	2	-0.65	45.74945	23.9094	1.716315
114	1	1.3	46.482	24.94635	0.66886
115	2	-0.65	3.93061	26.38755	1.685155
116	1	1.3	3.614535	25.6263	0.2564015
117	2	-0.65	6.39885	27.3461	1.588145
118	2	-0.65	12.0665	25.57975	0.2264615
119	2	-0.65	11.594	27.23335	2.138565
120	1	1.3	12.71015	26.8078	1.06809
121	2	-0.65	13.99425	26.25255	1.88462
122	2	-0.65	33.4512	25.3407	1.15143
123	1	1.3	33.88865	26.61135	2.074585
124	2	-0.65	34.99865	27.4016	1.156825
125	2	-0.65	39.8337	26.49025	1.434535
126	1	1.3	39.31225	25.50315	0.21403
127	1	1.3	41.13275	27.32915	2.022665
128	2	-0.65	46.9078	26.3158	1.516565
129	1	1.3	7.1728	28.33295	0.518825
130	2	-0.65	7.72945	29.63295	1.326035
131	2	-0.65	10.2472	29.4457	2.218515
132	2	-0.65	14.67145	29.72935	1.05104
133	2	-0.65	13.2079	27.99645	0.076789
134	2	-0.65	31.5352	29.73415	2.113975
135	2	-0.65	32.62325	27.523	2.41838
136	2	-0.65	36.1498	29.90225	1.60578
137	1	1.3	35.598	28.76375	0.52427
138	2	-0.65	41.6962	28.26165	0.81064
139	2	-0.65	44.10725	29.5688	0.304773
140	1	1.3	9.0337	30.46035	1.85317
141	2	-0.65	9.6182	31.4531	0.630385
142	1	1.3	15.94595	30.25515	1.96774
143	2	-0.65	17.2045	30.6445	0.957275
144	2	-0.65	18.9762	32.3997	0.272573
145	2	-0.65	26.26425	32.43885	0.619885
146	1	1.3	30.4346	30.78	1.65148
147	2	-0.65	30.95725	31.82745	0.471211
148	2	-0.65	38.801	30.70145	1.712225
149	1	1.3	39.3902	31.56375	0.4726795
150	2	-0.65	40.6721	32.48045	0.94894
151	1	1.3	44.5792	30.6963	1.429475
152	2	-0.65	45.83585	30.05515	2.371485
153	2	-0.65	45.1419	31.92595	0.4820365
154	2	-0.65	4.516355	33.0024	0.4276105
155	1	1.3	5.3203	33.98955	1.48451
156	2	-0.65	6.6666	33.4011	2.2485
157	1	1.3	10.6671	32.62205	0.0984455
158	2	-0.65	11.24935	33.18875	1.506405
159	1	1.3	12.48415	33.7478	2.41609
160	2	-0.65	13.7812	34.246	1.53094
161	1	1.3	19.67675	33.6972	1.07877
162	2	-0.65	18.4863	34.3295	1.932945
163	2	-0.65	20.98695	33.1476	1.83546
164	2	-0.65	20.1561	34.98805	0.2707565
165	1	1.3	26.79005	33.4978	1.77134
166	2	-0.65	25.60395	34.54985	2.20957
167	2	-0.65	27.93375	34.5359	1.199755
168	1	1.3	34.0257	34.38815	1.888705
169	2	-0.65	32.7348	33.6525	1.270295
170	2	-0.65	35.1212	33.28935	2.439275
171	2	-0.65	39.76925	34.58565	2.216975
172	1	1.3	41.12475	33.7702	1.83254
173	2	-0.65	42.21235	34.7122	1.084045
174	2	-0.65	6.01755	35.2006	0.68417
175	2	-0.65	8.46885	36.3326	0.79414
176	1	1.3	9.0221	37.1871	2.03171
177	1	1.3	14.4681	35.3556	0.53666
178	2	-0.65	14.99495	36.6351	1.425825
179	2	-0.65	17.50955	36.7166	2.46196
180	2	-0.65	22.0694	36.90775	1.04832
181	2	-0.65	24.56095	37.02845	2.02689
182	2	-0.65	29.82005	36.238	0.906655
183	1	1.3	28.59325	35.533	0.1111395
184	1	1.3	30.341	37.16315	2.11129
185	2	-0.65	34.621	35.325	0.64983
186	2	-0.65	38.72885	36.90975	1.794735
187	2	-0.65	41.7824	37.16105	0.1393055
188	1	1.3	42.99765	36.14455	0.71273
189	2	-0.65	7.7792	38.0618	2.4998
190	2	-0.65	10.1191	38.25325	1.505745
191	1	1.3	10.7183	39.24515	0.406436
192	1	1.3	16.20715	37.54085	1.99044
193	2	-0.65	16.5235	38.59695	0.84132
194	1	1.3	17.78655	39.3515	0.0588055
195	1	1.3	23.26585	37.9212	1.482805
196	2	-0.65	23.781	38.9623	0.3349595
197	2	-0.65	29.09895	38.1805	2.314425
198	2	-0.65	31.5332	38.08965	1.548405
199	1	1.3	32.13245	38.8513	0.2255655
200	2	-0.65	33.40315	39.7863	0.62861
201	2	-0.65	36.26715	38.08245	2.046165
202	1	1.3	37.3882	37.54215	1.040515
203	2	-0.65	37.9357	38.7725	0.1880425
204	1	1.3	39.07175	39.90415	0.050542
205	2	-0.65	11.3869	40.50445	1.26233
206	1	1.3	12.6426	41.12605	2.09166
207	2	-0.65	13.83365	41.67595	1.101585
208	2	-0.65	18.6216	40.4424	0.92147
209	1	1.3	19.8317	41.03025	1.90172
210	2	-0.65	21.1007	41.6545	1.12168
211	2	-0.65	26.0855	40.1108	0.077655
212	1	1.3	26.6319	41.0894	1.237065
213	2	-0.65	27.25545	42.49875	0.67674
214	2	-0.65	25.46985	41.2865	2.416125
215	2	-0.65	27.9681	40.46445	1.97446
216	1	1.3	34.031	40.81105	1.76349
217	2	-0.65	32.77315	41.82705	2.097795
218	2	-0.65	35.2014	41.72585	1.2077
219	2	-0.65	39.6622	40.52725	1.43326
220	1	1.3	16.20015	44.6346	1.03261
221	2	-0.65	17.3954	43.86555	1.92717
222	1	1.3	21.65235	42.85035	0.1965175
223	2	-0.65	22.22855	43.96575	1.197965
224	1	1.3	23.4302	44.49435	2.155415
225	2	-0.65	24.542	44.87415	1.018125
226	2	-0.65	29.08965	44.488	0.383759
227	2	-0.65	31.4175	44.0569	1.636135
228	1	1.3	35.6704	43.18235	0.64344
229	2	-0.65	26.3594	46.6036	0.71249
230	1	1.3	30.1993	45.12425	1.3637
231	1	1.3	21.5632	4.106825	3.252865
232	2	-0.65	28.2168	4.95021	2.531325
233	1	1.3	28.7013	3.893435	3.6776
234	2	-0.65	29.33645	4.860665	4.87324
235	2	-0.65	16.7116	6.22	3.785595
236	1	1.3	17.94865	6.9884	3.08038
237	2	-0.65	19.1961	7.2385	4.146825
238	2	-0.65	22.0832	5.07805	4.443565
239	2	-0.65	26.51725	6.8404	3.19239
240	1	1.3	25.18745	7.32905	3.96651
241	2	-0.65	31.18255	6.579	3.979005
242	2	-0.65	33.41355	6.49015	2.903435
243	2	-0.65	11.2807	8.8194	4.509205
244	2	-0.65	20.9982	9.18925	4.95679
245	2	-0.65	24.02085	7.77365	2.92165
246	2	-0.65	25.68405	8.72325	4.62912
247	1	1.3	32.3579	7.57175	3.439115
248	2	-0.65	32.8782	8.39465	4.696255
249	2	-0.65	38.54915	8.6307	2.84044
250	2	-0.65	8.5219	10.95885	4.471515
251	1	1.3	9.0972	12.4163	4.950675
252	2	-0.65	13.00155	10.8923	4.15442
253	1	1.3	14.33685	11.37025	3.38841
254	2	-0.65	15.06475	12.35225	4.47858
255	2	-0.65	15.4718	10.1896	3.00276
256	2	-0.65	20.38645	11.2717	3.319645
257	1	1.3	21.568	10.43575	4.08883
258	2	-0.65	22.70285	10.07015	2.94102
259	2	-0.65	27.49805	10.6471	4.15953
260	1	1.3	28.65535	10.8854	3.031485
261	2	-0.65	29.8976	11.5094	3.882355
262	2	-0.65	34.6119	10.3533	4.32021
263	1	1.3	35.78775	10.90775	3.36749
264	2	-0.65	37.1054	11.4891	4.195685
265	1	1.3	41.1633	12.3577	2.50509
266	2	-0.65	41.7465	11.0397	3.29424
267	2	-0.65	9.8077	13.12275	3.678945
268	1	1.3	10.81675	14.25675	3.054715
269	2	-0.65	12.01285	14.59925	4.093895
270	2	-0.65	17.44285	13.57085	4.795365
271	1	1.3	18.0739	14.2505	3.451535
272	2	-0.65	23.8264	13.1163	3.81864
273	1	1.3	25.03305	13.9563	3.08144
274	2	-0.65	26.19835	14.3532	4.15997
275	2	-0.65	30.8535	13.98455	4.492245
276	1	1.3	32.0772	14.70605	3.67391
277	2	-0.65	33.2451	13.6565	3.21554
278	1	1.3	39.45145	14.6289	3.801405
279	2	-0.65	38.18815	13.85645	4.523575
280	2	-0.65	40.62705	13.57485	3.413665
281	2	-0.65	8.30545	17.4613	3.154605
282	2	-0.65	9.99045	15.61975	2.66159
283	2	-0.65	16.8532	15.00405	2.69474
284	2	-0.65	15.6151	17.23135	3.30206
285	2	-0.65	19.28785	15.2694	3.732115
286	1	1.3	19.74455	16.49865	4.658575
287	2	-0.65	29.12075	16.67515	2.522005
288	2	-0.65	27.9478	16.06505	4.83397
289	1	1.3	28.47385	17.32325	3.91677
290	2	-0.65	32.79975	15.85805	4.612535
291	2	-0.65	36.40375	16.48215	2.601185
292	2	-0.65	35.12565	17.01565	4.90546
293	2	-0.65	38.93475	15.4585	2.51123
294	2	-0.65	39.94975	15.7032	4.95704
295	2	-0.65	44.19445	17.2382	3.293935
296	2	-0.65	6.05875	17.87725	4.47665
297	1	1.3	7.25635	18.6245	3.550095
298	2	-0.65	7.9158	19.6541	4.684615
299	1	1.3	14.38635	17.69485	4.368775
300	2	-0.65	13.18885	18.2533	3.480945
301	2	-0.65	20.3298	17.6904	3.701295
302	1	1.3	21.51275	17.97065	2.553995
303	2	-0.65	29.8389	18.08315	4.459665
304	2	-0.65	34.5735	18.3509	2.73205
305	1	1.3	35.8154	17.6481	3.53868
306	2	-0.65	36.9854	18.7927	3.91522
307	2	-0.65	41.67955	18.17985	3.086045
308	1	1.3	42.93395	17.79215	4.146425
309	1	1.3	3.681465	21.42205	3.23723
310	2	-0.65	4.90416	21.76995	4.223205
311	2	-0.65	9.57875	22.12885	3.01941
312	2	-0.65	11.5891	20.261	2.655145
313	1	1.3	10.85855	21.33375	3.678315
314	2	-0.65	12.07825	22.31135	4.168805
315	2	-0.65	10.3114	20.5906	4.99374
316	2	-0.65	16.8379	20.47425	3.89915
317	1	1.3	18.0449	21.23095	3.04849
318	2	-0.65	31.6861	20.018	4.841135
319	1	1.3	32.35595	21.08125	3.7682
320	2	-0.65	33.60135	21.79875	4.443145
321	1	1.3	39.569	21.5474	3.171085
322	2	-0.65	38.5272	20.93995	4.32737
323	2	-0.65	40.6741	22.2206	4.19336
324	2	-0.65	45.0641	21.9199	3.274505
325	1	1.3	46.3756	21.19985	3.98273
326	1	1.3	7.09095	24.85745	4.1088
327	2	-0.65	6.6732	23.51035	4.94698
328	2	-0.65	8.25105	24.48405	3.014225
329	1	1.3	12.56225	23.6582	4.996835
330	2	-0.65	13.1384	24.7894	3.935695
331	2	-0.65	15.5745	24.31775	2.93497
332	2	-0.65	35.2158	23.8025	4.62497
333	2	-0.65	36.9484	24.804	3.009505
334	2	-0.65	41.5295	24.7847	4.60658
335	2	-0.65	43.96905	24.4243	3.46541
336	1	1.3	5.25025	26.8549	2.602325
337	2	-0.65	5.78315	25.5522	3.41817
338	2	-0.65	9.6203	27.4199	3.95011
339	1	1.3	14.44655	25.42415	3.245805
340	2	-0.65	15.1171	26.5216	4.28093
341	2	-0.65	34.56255	26.08385	3.47957
342	1	1.3	35.75765	25.25245	4.1411
343	2	-0.65	42.2689	26.3174	2.58662
344	1	1.3	42.80725	25.49895	3.85758
345	2	-0.65	4.746445	28.04345	3.563305
346	1	1.3	3.459505	28.68745	4.32673
347	1	1.3	10.7811	28.17685	3.15689
348	2	-0.65	11.932	28.73385	4.105345
349	2	-0.65	17.3774	27.5554	4.79928
350	2	-0.65	16.5956	29.06285	2.96774
351	1	1.3	17.97505	28.38825	3.54558
352	2	-0.65	19.10615	29.5312	3.889395
353	1	1.3	32.1096	28.81805	3.255975
354	2	-0.65	33.2861	29.6419	3.95516
355	2	-0.65	37.88445	29.05745	3.630885
356	1	1.3	39.19155	28.39005	4.356675
357	2	-0.65	40.4961	28.08035	3.367055
358	2	-0.65	45.1739	28.23875	4.19693
359	1	1.3	46.4304	29.1625	3.63879
360	2	-0.65	5.9926	31.47805	3.92085
361	1	1.3	7.23365	32.41245	3.407305
362	2	-0.65	8.52505	31.4866	2.99158
363	1	1.3	14.33495	31.91545	4.141695
364	2	-0.65	13.84115	30.54385	4.85596
365	2	-0.65	15.44975	31.45765	2.990785
366	1	1.3	19.71985	30.6313	4.84685
367	2	-0.65	20.28015	31.9859	4.0585
368	2	-0.65	29.8243	31.67855	2.88902
369	1	1.3	28.57175	32.06065	3.9137
370	2	-0.65	34.5227	31.89165	4.559775
371	1	1.3	37.40905	30.2404	2.54123
372	2	-0.65	36.9502	31.5836	3.388325
373	2	-0.65	41.8635	30.84325	4.746885
374	2	-0.65	43.35765	31.1713	2.50828
375	1	1.3	42.74255	31.9262	3.84669
376	2	-0.65	7.755	33.4934	4.54968
377	2	-0.65	13.0878	32.62965	3.410435
378	2	-0.65	16.72855	34.66635	4.041555
379	1	1.3	21.527	32.5651	3.28341
380	2	-0.65	22.11015	33.8057	4.133345
381	2	-0.65	27.28915	32.6611	3.098515
382	2	-0.65	31.66985	34.31665	4.97878
383	1	1.3	35.73775	32.6226	3.81709
384	2	-0.65	36.52805	33.64315	4.814315
385	2	-0.65	41.7598	33.10445	3.20589
386	2	-0.65	44.13695	32.5519	4.514335
387	2	-0.65	9.5483	36.32285	3.269555
388	2	-0.65	11.9551	35.0591	3.24676
389	1	1.3	10.8346	35.7284	4.1832
390	2	-0.65	11.39035	37.00975	4.92931
391	1	1.3	18.03845	35.2975	3.22422
392	2	-0.65	19.19005	35.65245	4.335845
393	2	-0.65	24.13405	35.5823	4.20537
394	1	1.3	25.2202	35.9226	3.00853
395	2	-0.65	26.49135	36.587	3.75305
396	1	1.3	32.2397	35.6125	4.1527
397	2	-0.65	30.97555	36.3183	3.38714
398	2	-0.65	33.48045	35.2543	3.188595
399	2	-0.65	38.0133	35.59145	3.92348
400	1	1.3	39.29675	35.93205	2.93251
401	2	-0.65	40.50655	36.66005	3.73467
402	1	1.3	14.4058	39.25055	3.878475
403	2	-0.65	13.85615	38.1108	4.920135
404	2	-0.65	13.25895	39.80835	2.862
405	2	-0.65	15.73355	38.534	3.19835
406	1	1.3	21.53395	39.10065	3.79569
407	2	-0.65	20.93065	37.7205	4.45162
408	2	-0.65	20.3464	39.81205	2.871765
409	2	-0.65	22.7483	38.79385	2.73885
410	2	-0.65	27.4621	39.0556	4.27809
411	1	1.3	26.95915	37.65095	4.96604
412	1	1.3	28.6131	39.50825	3.141255
413	2	-0.65	34.57355	39.9482	3.040305
414	2	-0.65	35.1306	37.89865	4.54696
415	1	1.3	35.76935	38.9036	3.4272
416	2	-0.65	36.99685	39.75345	4.08386
417	2	-0.65	41.57005	38.96425	4.660965
418	2	-0.65	12.1418	42.2475	3.088775
419	2	-0.65	14.967	40.43755	4.78619
420	2	-0.65	16.73805	42.18545	3.949335
421	2	-0.65	19.23195	42.2117	2.90595
422	2	-0.65	22.01435	40.2397	4.84693
423	1	1.3	24.9874	42.32755	3.592185
424	2	-0.65	24.45675	41.4211	4.835935
425	2	-0.65	29.92355	40.2925	3.855055
426	1	1.3	30.40205	41.49815	4.79198
427	1	1.3	17.9614	43.17345	3.332615
428	2	-0.65	18.39305	44.26025	4.56733
429	2	-0.65	23.8268	43.1826	2.94792
430	2	-0.65	26.22155	43.30795	4.115055
431	2	-0.65	30.9945	42.7229	3.894565
432	1	1.3	32.0923	43.13235	2.799985
433	2	-0.65	33.1858	44.07225	3.60789
434	2	-0.65	20.4539	45.78735	4.077195
435	1	1.3	21.70075	46.702	3.49123
436	2	-0.65	22.98435	45.7428	3.119485
437	2	-0.65	27.4029	45.6117	4.03087
438	2	-0.65	29.7235	45.71695	2.80605
439	1	1.3	28.6024	46.62255	3.56911
440	2	-0.65	17.4291	4.959185	6.01285
441	2	-0.65	24.03425	3.93981	5.84895
442	1	1.3	25.05135	3.26051	6.89865
443	2	-0.65	26.42405	4.082195	7.4187
444	2	-0.65	13.29475	6.69165	7.09255
445	1	1.3	16.20545	5.59525	5.1485
446	2	-0.65	15.65295	6.8774	6.0691
447	2	-0.65	20.3335	7.18595	6.5455
448	2	-0.65	24.5677	6.27915	5.0522
449	2	-0.65	22.62145	5.94135	6.98375
450	1	1.3	23.29515	5.3699	5.55715
451	2	-0.65	27.4702	6.59495	7.221
452	2	-0.65	29.93	7.04705	6.3397
453	2	-0.65	31.67125	5.06665	6.08475
454	1	1.3	30.50105	5.9009	5.26955
455	1	1.3	35.70545	6.99505	6.84745
456	1	1.3	12.5137	9.734	5.17275
457	1	1.3	14.3766	7.77545	6.65295
458	2	-0.65	13.8022	8.8462	5.57575
459	1	1.3	19.80795	8.15545	5.36445
460	2	-0.65	18.56165	9.0798	5.8636
461	1	1.3	26.85935	9.6561	5.20805
462	2	-0.65	28.1251	8.7122	5.7759
463	1	1.3	28.5958	7.7659	6.9847
464	1	1.3	34.0407	9.269	5.46605
465	2	-0.65	33.3111	9.88305	6.7662
466	2	-0.65	35.28315	8.24095	5.883
467	2	-0.65	10.15785	12.19695	6.16065
468	1	1.3	10.6956	11.1722	7.26445
469	2	-0.65	11.8721	10.2853	6.59095
470	2	-0.65	16.81685	11.14505	5.99
471	1	1.3	17.94215	10.3026	6.7483
472	2	-0.65	19.1027	11.40955	7.0557
473	2	-0.65	22.24025	11.4695	5.16505
474	2	-0.65	24.622	12.28575	6.18305
475	1	1.3	25.2581	11.18685	7.26815
476	2	-0.65	26.42045	10.4739	6.51
477	2	-0.65	31.63535	11.7591	5.78245
478	1	1.3	32.20465	11.0833	7.13965
479	2	-0.65	38.8018	11.90805	6.1512
480	1	1.3	39.31595	10.854	7.29135
481	2	-0.65	40.58115	10.0165	6.6683
482	1	1.3	7.2452	14.40875	6.6601
483	2	-0.65	7.9106	13.43245	5.53055
484	2	-0.65	13.1758	14.24915	6.48595
485	1	1.3	16.3088	12.6171	5.51775
486	2	-0.65	15.6531	13.33475	6.8225
487	1	1.3	21.42265	14.91255	6.5895
488	2	-0.65	20.12545	13.983	6.91715
489	2	-0.65	22.76455	14.039	6.10405
490	1	1.3	23.30845	12.75345	5.2651
491	2	-0.65	27.35155	14.2435	6.71545
492	2	-0.65	29.3989	12.7475	6.3953
493	1	1.3	28.7054	13.7387	7.4288
494	1	1.3	30.38615	12.5272	5.085
495	2	-0.65	36.30085	13.06495	6.25065
496	1	1.3	35.70405	14.1338	7.3332
497	1	1.3	37.5685	12.6154	5.37525
498	2	-0.65	41.5736	14.58115	6.6494
499	1	1.3	42.75095	13.5959	7.22515
500	2	-0.65	4.906875	17.48625	6.86625
501	2	-0.65	6.69085	15.79665	5.9452
502	1	1.3	5.43635	16.711	5.47905
503	2	-0.65	11.24345	16.14345	6.13685
504	1	1.3	10.76335	17.44055	7.0339
505	1	1.3	12.4995	15.38515	5.43335
506	2	-0.65	13.7375	16.4502	5.20395
507	2	-0.65	18.3552	16.95775	5.4576
508	2	-0.65	21.0114	16.05235	5.5695
509	1	1.3	26.76025	15.13535	5.4939
510	2	-0.65	25.5449	16.1863	5.7965
511	2	-0.65	34.5	15.00385	6.5869
512	1	1.3	33.9381	16.2144	5.72765
513	2	-0.65	33.34695	17.43625	6.65145
514	2	-0.65	42.37475	16.61725	5.16405
515	1	1.3	41.1451	16.0435	6.0573
516	2	-0.65	40.3896	17.0408	7.1297
517	1	1.3	9.10535	19.83865	5.7476
518	2	-0.65	9.59315	18.3682	6.27965
519	2	-0.65	12.03755	18.33035	7.40215
520	2	-0.65	15.01905	18.8551	5.31405
521	2	-0.65	17.19515	19.2866	6.27435
522	1	1.3	17.67955	17.786	6.71945
523	1	1.3	25.07725	17.58265	6.5115
524	1	1.3	30.40825	19.24465	5.4814
525	2	-0.65	30.87735	18.4863	6.86475
526	1	1.3	37.71725	19.70895	5.01675
527	1	1.3	39.22525	18.21005	7.20905
528	2	-0.65	38.87635	18.79385	5.72185
529	2	-0.65	43.38245	19.05625	5.03285
530	1	1.3	44.5625	19.62105	6.0296
531	2	-0.65	45.1551	18.3973	6.8846
532	2	-0.65	5.9709	21.63855	6.6894
533	2	-0.65	8.4452	20.6532	7.0147
534	1	1.3	14.2847	21.9481	6.9871
535	2	-0.65	13.3079	20.6664	7.13415
536	1	1.3	16.1484	20.0907	5.33565
537	2	-0.65	15.51115	21.41355	6.0723
538	2	-0.65	34.9839	22.2271	6.67505
539	2	-0.65	36.55815	20.12785	6.1266
540	1	1.3	35.90685	20.98945	7.32015
541	2	-0.65	44.00305	20.7907	7.0632
542	1	1.3	42.9309	21.9688	7.389
543	2	-0.65	45.77585	20.28055	5.19135
544	2	-0.65	4.28532	23.5603	6.0875
545	1	1.3	3.63273	24.36725	7.33545
546	1	1.3	5.4608	22.64865	5.48575
547	2	-0.65	11.27655	24.30085	5.6916
548	2	-0.65	13.61685	23.19605	6.1774
549	1	1.3	17.8396	24.6467	6.835
550	1	1.3	34.10815	22.937	5.49705
551	2	-0.65	32.8332	23.7688	6.00785
552	2	-0.65	39.8081	23.86265	6.304
553	2	-0.65	42.3814	22.9421	6.19595
554	1	1.3	41.04135	23.40795	5.35585
555	2	-0.65	46.9279	24.21215	6.03895
556	2	-0.65	7.7455	25.95305	5.20385
557	1	1.3	8.9133	27.0388	5.4137
558	2	-0.65	9.93125	26.4361	6.4734
559	1	1.3	10.6766	25.08295	7.0063
560	1	1.3	16.0986	26.7813	5.50205
561	2	-0.65	16.60515	25.3688	6.11475
562	1	1.3	32.1656	25.1382	6.6799
563	2	-0.65	33.2406	26.07785	7.34925
564	2	-0.65	36.35585	25.97105	5.5158
565	1	1.3	37.49035	26.76065	6.3789
566	2	-0.65	38.6944	27.2552	5.38615
567	2	-0.65	38.021	25.6397	7.42265
568	2	-0.65	43.36335	26.4981	5.0031
569	1	1.3	46.4681	25.51935	6.95965
570	2	-0.65	45.81405	26.7828	6.23275
571	1	1.3	6.9943	28.91715	7.06
572	2	-0.65	5.7992	27.9076	7.4436
573	2	-0.65	8.24385	28.2502	6.248
574	1	1.3	12.49915	29.70575	5.3364
575	2	-0.65	12.9718	28.6849	6.50885
576	2	-0.65	15.50455	27.83245	6.57115
577	2	-0.65	35.11735	29.72335	6.00455
578	2	-0.65	36.94825	28.11305	7.1499
579	1	1.3	35.6351	29.1269	7.4071
580	2	-0.65	39.7206	29.59345	5.3076
581	2	-0.65	41.43385	29.5564	7.09125
582	1	1.3	44.52245	27.5577	5.4677
583	2	-0.65	43.9325	28.57335	6.5
584	2	-0.65	3.979485	30.0369	5.0277
585	2	-0.65	4.77596	32.1477	6.2525
586	1	1.3	5.30135	30.9389	5.24485
587	2	-0.65	6.56435	30.1284	5.99065
588	2	-0.65	11.34745	30.8294	5.74415
589	1	1.3	10.65235	31.6481	6.98045
590	2	-0.65	18.47285	31.08015	5.8204
591	1	1.3	17.8568	32.054	6.96335
592	1	1.3	24.99035	32.2432	6.40785
593	1	1.3	33.9077	30.49805	5.20255
594	2	-0.65	32.6308	30.68675	6.26875
595	1	1.3	40.8304	30.5729	5.95745
596	2	-0.65	40.44185	32.02475	6.552
597	2	-0.65	9.37585	32.50835	6.4231
598	2	-0.65	8.16835	34.85965	6.9453
599	1	1.3	8.78495	33.8962	5.7419
600	2	-0.65	10.12015	34.5885	5.1359
601	2	-0.65	15.01625	32.99165	5.1885
602	1	1.3	16.12135	34.1071	5.44735
603	2	-0.65	17.28405	33.44975	6.32905
604	1	1.3	23.3007	34.51815	5.06295
605	2	-0.65	24.3943	33.3665	5.33405
606	2	-0.65	26.29975	32.9393	7.17745
607	2	-0.65	29.08945	33.11215	5.06935
608	2	-0.65	30.98545	32.6445	6.9213
609	1	1.3	30.37685	33.73715	5.8377
610	1	1.3	37.57325	34.8031	5.27105
611	1	1.3	39.4207	33.1185	7.2583
612	2	-0.65	38.85195	34.08555	6.0396
613	2	-0.65	43.6375	34.33345	6.44165
614	1	1.3	44.82085	33.4516	5.73885
615	2	-0.65	45.3957	32.50325	6.8877
616	2	-0.65	6.5906	36.5278	5.95115
617	1	1.3	7.14035	36.06185	7.4071
618	2	-0.65	13.1381	36.63745	6.8531
619	1	1.3	14.3942	35.69085	7.43095
620	2	-0.65	15.53705	35.3358	6.3562
621	1	1.3	19.75195	36.8854	5.24785
622	2	-0.65	20.3056	36.2026	6.65025
623	2	-0.65	22.76775	35.23075	6.44565
624	2	-0.65	29.97295	35.1561	6.58075
625	2	-0.65	28.16495	36.95325	5.74105
626	1	1.3	28.6677	36.04035	7.0552
627	2	-0.65	32.8183	36.67185	5.29315
628	2	-0.65	34.7291	36.9597	7.0397
629	2	-0.65	36.86195	35.76025	6.35685
630	2	-0.65	42.2769	36.6637	5.7427
631	1	1.3	41.0809	37.4338	5.0649
632	1	1.3	43.0274	35.8075	6.90005
633	2	-0.65	9.5686	39.98245	6.7139
634	2	-0.65	11.9606	38.91795	6.7099
635	1	1.3	12.5854	37.7032	5.81545
636	2	-0.65	16.66865	38.49215	7.3912
637	2	-0.65	18.69205	38.0468	5.6278
638	1	1.3	17.9292	39.07095	6.61495
639	2	-0.65	23.8505	39.61175	6.59765
640	1	1.3	25.06375	38.69175	7.24965
641	2	-0.65	25.70325	37.82345	6.0165
642	1	1.3	32.217	39.9765	6.81515
643	2	-0.65	30.963	39.01815	7.45215
644	1	1.3	34.0638	37.6538	5.76885
645	2	-0.65	33.42795	39.06105	6.18335
646	2	-0.65	38.05085	39.4376	6.64565
647	1	1.3	39.26405	38.6276	7.327
648	2	-0.65	39.88375	37.673	6.18555
649	1	1.3	16.20655	41.3292	5.22695
650	2	-0.65	17.4088	40.34405	5.76
651	2	-0.65	15.65985	42.2968	6.4271
652	2	-0.65	22.63095	42.04285	6.7229
653	1	1.3	23.2058	40.8621	5.732
654	2	-0.65	29.1505	41.82715	5.7751
655	2	-0.65	31.63795	41.0277	5.72025
656	2	-0.65	36.23335	41.34035	6.1815
657	1	1.3	37.41005	40.43055	5.51875
658	2	-0.65	38.75165	41.26785	5.09565
659	1	1.3	14.48605	43.43465	6.9464
660	1	1.3	19.6741	44.93005	5.20325
661	1	1.3	21.38555	43.04535	7.07925
662	2	-0.65	20.7322	43.78895	5.81725
663	1	1.3	26.729	44.5411	5.0087
664	2	-0.65	27.77015	44.1127	6.1793
665	1	1.3	28.4501	42.85535	6.8625
666	1	1.3	33.9101	44.5839	5.0415
667	2	-0.65	32.77625	44.64775	6.22545
668	1	1.3	35.74565	42.775	6.822
669	2	-0.65	35.0285	43.5253	5.57525
670	2	-0.65	19.25045	45.91825	6.4359
671	1	1.3	24.97975	46.08755	7.0856
672	2	-0.65	25.46725	45.2141	5.8092
673	1	1.3	32.1836	45.67325	7.37675
674	2	-0.65	19.142	4.05003	7.7165
675	1	1.3	19.5128	4.900045	9.0914
676	2	-0.65	18.24505	5.75105	9.6446
677	1	1.3	21.4802	6.8718	7.6572
678	2	-0.65	20.73685	5.9553	8.77555
679	2	-0.65	25.57195	6.1136	8.97715
680	1	1.3	26.86285	5.4453	8.2685
681	2	-0.65	28.0219	5.0867	9.3379
682	2	-0.65	32.4747	6.13855	9.67015
683	1	1.3	33.68905	5.50225	8.7692
684	2	-0.65	34.3452	6.46635	7.5928
685	2	-0.65	36.9372	7.49475	7.76905
686	2	-0.65	14.8907	8.5365	8.0015
687	1	1.3	16.13155	9.16975	8.94435
688	2	-0.65	17.4015	9.69265	8.0702
689	2	-0.65	16.6956	7.93055	9.89115
690	2	-0.65	21.9873	8.2685	8.2738
691	2	-0.65	24.1944	9.9908	7.5691
692	2	-0.65	24.36705	8.3859	9.63555
693	1	1.3	23.26745	9.1938	8.6788
694	2	-0.65	29.0739	8.49275	8.34765
695	1	1.3	30.19265	9.46685	9.04005
696	2	-0.65	31.51955	8.6302	9.5465
697	2	-0.65	36.50605	9.04885	9.74615
698	1	1.3	37.66095	8.64955	8.67535
699	2	-0.65	38.18765	9.7563	7.61725
700	2	-0.65	38.9324	8.0043	9.457
701	2	-0.65	9.412	10.25155	7.8995
702	2	-0.65	11.2084	12.0364	8.49695
703	1	1.3	12.4128	12.49875	9.56335
704	2	-0.65	15.4389	10.2963	9.9959
705	2	-0.65	20.84675	12.2282	8.7369
706	1	1.3	21.372	11.29655	9.97905
707	2	-0.65	22.6382	10.4494	9.54625
708	2	-0.65	25.69125	12.0889	8.5997
709	1	1.3	26.88495	12.4595	9.66245
710	2	-0.65	30.85185	10.31795	7.80325
711	2	-0.65	32.65865	12.1326	8.31025
712	2	-0.65	34.52285	10.98655	9.7341
713	1	1.3	33.89835	12.49955	9.3256
714	2	-0.65	39.77035	11.61655	8.65735
715	1	1.3	40.97095	12.37925	9.42125
716	2	-0.65	8.29625	14.83505	7.773
717	1	1.3	14.315	13.9003	7.5814
718	2	-0.65	13.74	12.9195	8.7499
719	1	1.3	19.6186	12.775	7.8654
720	2	-0.65	18.274	13.24715	8.648
721	1	1.3	17.7086	14.0667	9.96205
722	2	-0.65	28.19745	12.8894	8.7751
723	2	-0.65	29.62555	14.9972	7.83
724	2	-0.65	30.99155	14.4046	9.94525
725	2	-0.65	35.09475	13.46315	8.6878
726	2	-0.65	42.18555	12.6141	8.40785
727	2	-0.65	40.419	13.8365	9.932
728	2	-0.65	43.9122	14.59285	7.77755
729	1	1.3	8.8825	15.7772	8.97345
730	2	-0.65	7.67105	16.60225	9.67145
731	2	-0.65	10.0842	16.77985	8.39665
732	2	-0.65	14.75335	15.26195	8.38895
733	2	-0.65	17.0798	15.5309	9.46075
734	1	1.3	15.8608	16.3799	8.80975
735	2	-0.65	16.4524	17.14295	7.5027
736	2	-0.65	21.8971	15.7347	7.9271
737	2	-0.65	22.49845	17.3098	9.8906
738	1	1.3	23.18105	16.39915	8.7101
739	2	-0.65	24.2618	15.44885	9.4433
740	2	-0.65	23.97795	17.43665	7.6886
741	2	-0.65	29.2201	16.4845	9.73075
742	1	1.3	30.45715	15.6407	9.0617
743	2	-0.65	31.688	16.4977	8.54975
744	2	-0.65	36.9334	15.11895	7.79595
745	1	1.3	37.3598	16.31335	8.8294
746	2	-0.65	36.0661	16.5104	9.78685
747	2	-0.65	38.6243	15.846	9.7014
748	1	1.3	44.33275	15.5466	9.06365
749	2	-0.65	43.1089	16.53885	9.4755
750	2	-0.65	4.22003	19.3485	8.7801
751	1	1.3	5.41645	19.78485	9.81935
752	1	1.3	12.5791	19.66465	8.14875
753	2	-0.65	13.8254	19.2312	9.0975
754	2	-0.65	18.81105	18.06535	7.85915
755	1	1.3	19.52155	19.0606	8.9911
756	1	1.3	32.1002	17.8362	7.66605
757	2	-0.65	32.5183	19.04035	8.6774
758	1	1.3	33.79475	19.76885	9.461
759	2	-0.65	37.86075	17.59015	7.88105
760	2	-0.65	39.7287	19.42785	8.19085
761	2	-0.65	42.1734	19.0693	9.23265
762	2	-0.65	6.6282	20.296	8.8663
763	1	1.3	7.12645	21.3055	7.7307
764	2	-0.65	11.49925	20.64635	8.878
765	2	-0.65	18.43905	20.1517	9.44895
766	2	-0.65	34.9576	20.1111	8.39065
767	2	-0.65	37.1192	21.7266	8.18985
768	1	1.3	40.9438	20.1638	9.0454
769	2	-0.65	41.6291	21.2275	8.0066
770	2	-0.65	7.59335	22.6604	8.5052
771	1	1.3	8.87265	23.5014	9.0118
772	2	-0.65	9.5532	24.02195	7.66345
773	2	-0.65	9.84005	22.51595	9.90455
774	2	-0.65	8.3556	24.82535	9.8354
775	2	-0.65	14.91255	22.58255	8.35865
776	2	-0.65	17.37555	24.0483	8.32465
777	1	1.3	16.10815	23.34315	9.12155
778	2	-0.65	15.36095	24.6015	9.8459
779	2	-0.65	36.3893	23.73065	9.89005
780	1	1.3	37.55495	22.67505	9.46045
781	1	1.3	39.28715	24.63485	7.697
782	2	-0.65	38.81085	23.53375	8.80365
783	2	-0.65	43.53445	22.87285	8.6062
784	1	1.3	44.76145	23.9175	9.01615
785	2	-0.65	46.0652	22.9398	9.33955
786	2	-0.65	45.1936	24.8328	7.74835
787	2	-0.65	4.72182	25.4687	7.8221
788	2	-0.65	6.3685	26.5888	9.5875
789	1	1.3	5.13575	26.9051	8.5353
790	2	-0.65	11.91435	25.41675	7.9969
791	2	-0.65	11.21265	27.3834	9.69425
792	1	1.3	12.4319	26.35365	9.28885
793	2	-0.65	13.6079	27.2834	8.6198
794	1	1.3	33.8586	26.84775	8.61055
795	2	-0.65	32.7387	27.23405	9.7803
796	2	-0.65	35.07425	25.9715	9.1525
797	2	-0.65	40.6019	25.236	8.5384
798	1	1.3	41.2654	26.59925	9.2545
799	2	-0.65	42.3023	27.4382	8.28255
800	2	-0.65	3.8747	27.6894	9.17725
801	2	-0.65	7.57055	29.702	8.38385
802	1	1.3	14.2115	28.3179	7.50205
803	2	-0.65	14.70315	29.5755	8.40375
804	2	-0.65	17.2946	29.56325	9.2789
805	2	-0.65	34.41325	28.3049	8.1111
806	2	-0.65	38.7233	29.9175	9.0878